
9/18/03, C2H4 with g94 & 6-31G(d)                                       
SP        RHF                           6-31G(d)                      
Number of atoms                            I                6
Charge                                     I                0
Multiplicity                               I                1
Number of electrons                        I               16
Number of alpha electrons                  I                8
Number of beta electrons                   I                8
Number of basis functions                  I               38
Number of contracted shells                I               16
Highest angular momentum                   I                2
Largest degree of contraction              I                6
Number of primitive shells                 I               38
Viriral Ratio                              R      2.002318032578901E+00
SCF Energy                                 R     -7.803069663133343E+01
Total Energy                               R     -7.803069663133343E+01
RMS Density                                R      1.795554574873793E-05
Atomic numbers                             I   N=           6
           6           6           1           1           1           1
Nuclear charges                            R   N=           6
  6.00000000E+00  6.00000000E+00  1.00000000E+00  1.00000000E+00  1.00000000E+00
  1.00000000E+00
Current cartesian coordinates              R   N=          18
  0.00000000E+00  0.00000000E+00  1.26600000E+00  1.55040285E-16  0.00000000E+00
 -1.26600000E+00  0.00000000E+00  1.75500000E+00  2.33000000E+00 -2.14925513E-16
 -1.75500000E+00  2.33000000E+00  2.85342704E-16  1.75500000E+00 -2.33000000E+00
 -2.14925513E-16 -1.75500000E+00 -2.33000000E+00
Shell types                                I   N=          16
           0          -1          -1           2           0          -1
          -1           2           0           0           0           0
           0           0           0           0
Number of primitives per shell             I   N=          16
           6           3           1           1           6           3
           1           1           3           1           3           1
           3           1           3           1
Shell to atom map                          I   N=          16
           1           1           1           1           2           2
           2           2           3           3           4           4
           5           5           6           6
Primitive exponents                        R   N=          38
  3.04752488E+03  4.57369518E+02  1.03948685E+02  2.92101553E+01  9.28666296E+00
  3.16392696E+00  7.86827235E+00  1.88128854E+00  5.44249258E-01  1.68714478E-01
  8.00000000E-01  3.04752488E+03  4.57369518E+02  1.03948685E+02  2.92101553E+01
  9.28666296E+00  3.16392696E+00  7.86827235E+00  1.88128854E+00  5.44249258E-01
  1.68714478E-01  8.00000000E-01  1.87311370E+01  2.82539436E+00  6.40121692E-01
  1.61277759E-01  1.87311370E+01  2.82539436E+00  6.40121692E-01  1.61277759E-01
  1.87311370E+01  2.82539436E+00  6.40121692E-01  1.61277759E-01  1.87311370E+01
  2.82539436E+00  6.40121692E-01  1.61277759E-01
Contraction coefficients                   R   N=          38
  1.83473713E-03  1.40373228E-02  6.88426223E-02  2.32184443E-01  4.67941348E-01
  3.62311985E-01 -1.19332420E-01 -1.60854152E-01  1.14345644E+00  1.00000000E+00
  1.00000000E+00  1.83473713E-03  1.40373228E-02  6.88426223E-02  2.32184443E-01
  4.67941348E-01  3.62311985E-01 -1.19332420E-01 -1.60854152E-01  1.14345644E+00
  1.00000000E+00  1.00000000E+00  3.34946043E-02  2.34726953E-01  8.13757326E-01
  1.00000000E+00  3.34946043E-02  2.34726953E-01  8.13757326E-01  1.00000000E+00
  3.34946043E-02  2.34726953E-01  8.13757326E-01  1.00000000E+00  3.34946043E-02
  2.34726953E-01  8.13757326E-01  1.00000000E+00
P(S=P) Contraction coefficients            R   N=          38
  0.00000000E+00  0.00000000E+00  0.00000000E+00  0.00000000E+00  0.00000000E+00
  0.00000000E+00  6.89990666E-02  3.16423961E-01  7.44308291E-01  1.00000000E+00
  0.00000000E+00  0.00000000E+00  0.00000000E+00  0.00000000E+00  0.00000000E+00
  0.00000000E+00  0.00000000E+00  6.89990666E-02  3.16423961E-01  7.44308291E-01
  1.00000000E+00  0.00000000E+00  0.00000000E+00  0.00000000E+00  0.00000000E+00
  0.00000000E+00  0.00000000E+00  0.00000000E+00  0.00000000E+00  0.00000000E+00
  0.00000000E+00  0.00000000E+00  0.00000000E+00  0.00000000E+00  0.00000000E+00
  0.00000000E+00  0.00000000E+00  0.00000000E+00
Coordinates of each shell                  R   N=          48
  0.00000000E+00  0.00000000E+00  1.26600000E+00  0.00000000E+00  0.00000000E+00
  1.26600000E+00  0.00000000E+00  0.00000000E+00  1.26600000E+00  0.00000000E+00
  0.00000000E+00  1.26600000E+00  1.55040285E-16  0.00000000E+00 -1.26600000E+00
  1.55040285E-16  0.00000000E+00 -1.26600000E+00  1.55040285E-16  0.00000000E+00
 -1.26600000E+00  1.55040285E-16  0.00000000E+00 -1.26600000E+00  0.00000000E+00
  1.75500000E+00  2.33000000E+00  0.00000000E+00  1.75500000E+00  2.33000000E+00
 -2.14925513E-16 -1.75500000E+00  2.33000000E+00 -2.14925513E-16 -1.75500000E+00
  2.33000000E+00  2.85342704E-16  1.75500000E+00 -2.33000000E+00  2.85342704E-16
  1.75500000E+00 -2.33000000E+00 -2.14925513E-16 -1.75500000E+00 -2.33000000E+00
 -2.14925513E-16 -1.75500000E+00 -2.33000000E+00
Alpha Orbital Energies                     R   N=          38
 -1.12302368E+01 -1.12286333E+01 -1.02525565E+00 -7.86785351E-01 -6.37002583E-01
 -5.78748277E-01 -5.03949732E-01 -3.69167958E-01  1.78431935E-01  2.63115225E-01
  2.91712144E-01  3.07210693E-01  3.89900423E-01  4.88293679E-01  6.68797852E-01
  7.69675841E-01  7.76806431E-01  8.50970101E-01  8.89538154E-01  9.51181616E-01
  1.11052029E+00  1.15560282E+00  1.19783587E+00  1.20695626E+00  1.32956746E+00
  1.48271674E+00  1.73950067E+00  1.82292697E+00  2.12790516E+00  2.20101772E+00
  2.31487463E+00  2.40003598E+00  2.62131023E+00  2.70731091E+00  3.03526491E+00
  3.06094956E+00  4.51691454E+00  4.66995773E+00
Alpha MO coefficients                      R   N=        1444
  7.03787086E-01  1.91201556E-02  0.00000000E+00  0.00000000E+00  1.57137555E-04
 -5.26984040E-03  0.00000000E+00  0.00000000E+00 -7.08134125E-04 -1.82798373E-03
 -1.58941712E-03 -1.33709680E-03  0.00000000E+00  0.00000000E+00  0.00000000E+00
  7.03787086E-01  1.91201556E-02  0.00000000E+00  0.00000000E+00 -1.57137555E-04
 -5.26984040E-03  0.00000000E+00  0.00000000E+00  7.08134125E-04 -1.82798373E-03
 -1.58941712E-03 -1.33709680E-03  0.00000000E+00  0.00000000E+00  0.00000000E+00
 -1.47492431E-04  1.45494537E-03 -1.47492431E-04  1.45494537E-03 -1.47492431E-04
  1.45494537E-03 -1.47492431E-04  1.45494537E-03  7.04239874E-01  1.95694525E-02
  6.60000997E-19  5.96141202E-19 -1.68065606E-04 -1.09467844E-02 -4.56723087E-18
 -5.75077778E-18  1.63913583E-03 -1.72735820E-03 -1.23576517E-03 -9.26384244E-04
  8.79685001E-21  2.49953858E-18  2.13316023E-18 -7.04239874E-01 -1.95694525E-02
 -6.60000997E-19 -5.96141202E-19 -1.68065606E-04  1.09467844E-02  4.56723087E-18
  5.75077778E-18  1.63913583E-03  1.72735820E-03  1.23576517E-03  9.26384244E-04
 -6.77046112E-22  2.49953858E-18  2.13316023E-18 -5.87884583E-05  1.51884989E-03
 -5.87884583E-05  1.51884989E-03  5.87884583E-05 -1.51884989E-03  5.87884583E-05
 -1.51884989E-03 -1.56499626E-01  2.97171038E-01  0.00000000E+00  0.00000000E+00
 -1.04097435E-01  2.31615415E-01  0.00000000E+00  0.00000000E+00 -6.98908323E-03
 -1.27496639E-02  5.16857846E-03  1.69596475E-02  0.00000000E+00  0.00000000E+00
  0.00000000E+00 -1.56499626E-01  2.97171038E-01  0.00000000E+00  0.00000000E+00
  1.04097435E-01  2.31615415E-01  0.00000000E+00  0.00000000E+00  6.98908323E-03
 -1.27496639E-02  5.16857846E-03  1.69596475E-02  0.00000000E+00  0.00000000E+00
  0.00000000E+00  8.29827853E-02  1.67837951E-02  8.29827853E-02  1.67837951E-02
  8.29827853E-02  1.67837951E-02  8.29827853E-02  1.67837951E-02 -1.19890246E-01
  2.32741506E-01 -3.18010072E-19 -3.15975216E-19  1.66031031E-01  2.37096305E-01
 -5.05869695E-18 -2.00668575E-18  6.65521021E-02 -1.09497459E-02  2.40917635E-02
  3.49382619E-04  2.87828569E-18  7.58396039E-19  8.71251155E-19  1.19890246E-01
 -2.32741506E-01  3.18010072E-19  3.15975216E-19  1.66031031E-01 -2.37096305E-01
  5.05869695E-18  2.00668575E-18  6.65521021E-02  1.09497459E-02 -2.40917635E-02
 -3.49382619E-04 -2.21526129E-19  7.58396039E-19  8.71251155E-19  1.45851897E-01
  6.72655579E-02  1.45851897E-01  6.72655579E-02 -1.45851897E-01 -6.72655579E-02
 -1.45851897E-01 -6.72655579E-02  1.39776178E-17  5.89667552E-17  1.18200431E-18
  3.20340170E-01  2.59334162E-17 -5.90908786E-16 -1.31687615E-18  1.29555686E-01
  1.98923063E-16  2.18681146E-17  2.85043029E-17 -2.62006539E-17 -1.61815058E-19
  1.87785902E-18  1.33657221E-02 -1.81849312E-17 -1.28332565E-18 -1.18200431E-18
  3.20340170E-01  1.57072861E-17  5.22748091E-16  1.31687615E-18  1.29555686E-01
  2.29285609E-16 -4.43138680E-17 -6.41528571E-17  5.04533658E-18  9.32187617E-20
  1.87785902E-18 -1.33657221E-02  1.57613222E-01  1.08487862E-01 -1.57613222E-01
 -1.08487862E-01  1.57613222E-01  1.08487862E-01 -1.57613222E-01 -1.08487862E-01
  1.18719094E-02 -2.86870166E-02  0.00000000E+00  4.44561290E-18  4.06571193E-01
  1.29568849E-02  0.00000000E+00  1.79794632E-18  1.56673614E-01 -1.49479902E-03
  2.65524733E-02 -1.19177866E-02  0.00000000E+00  0.00000000E+00  1.85486655E-19
  1.18719094E-02 -2.86870166E-02  0.00000000E+00  4.44561290E-18 -4.06571193E-01
  1.29568849E-02  0.00000000E+00  1.79794632E-18 -1.56673614E-01 -1.49479902E-03
  2.65524733E-02 -1.19177866E-02  0.00000000E+00  0.00000000E+00 -1.85486655E-19
  1.24291296E-01  1.01868341E-01  1.24291296E-01  1.01868341E-01  1.24291296E-01
  1.01868341E-01  1.24291296E-01  1.01868341E-01  2.17340247E-19 -3.62854077E-18
 -3.25314209E-18  3.03732171E-01 -2.56545864E-17  2.02173299E-17  1.74492776E-17
  1.96202469E-01  2.50916857E-18 -9.97528192E-18 -1.77977988E-17 -2.74439137E-18
 -2.96757613E-18 -2.44885124E-18  3.64992059E-02 -6.43790535E-18  9.29120818E-18
  3.25314209E-18 -3.03732171E-01  1.64380128E-17  3.33788188E-17 -1.74492776E-17
 -1.96202469E-01 -6.20355237E-18 -1.05831149E-17 -1.64604373E-17 -2.72499674E-18
 -2.96757613E-18 -2.44885124E-18  3.64992059E-02  1.88520687E-01  1.54416464E-01
 -1.88520687E-01 -1.54416464E-01 -1.88520687E-01 -1.54416464E-01  1.88520687E-01
  1.54416464E-01  3.59141678E-18  7.06299169E-17  3.73465602E-01  1.77566087E-17
  2.90837055E-17 -5.06390665E-16  3.07912180E-01 -1.84980143E-16  3.78918799E-16
  1.16763221E-17  5.69145470E-18 -9.15992155E-17  3.83977585E-18 -2.51267310E-02
 -4.26402516E-18 -1.21723295E-17 -3.36068663E-17  3.73465602E-01 -2.10019976E-17
  2.53615243E-17  5.79004864E-16  3.07912180E-01  1.89106443E-16  3.78786531E-16
 -5.05595827E-17 -4.64166575E-17  5.11673721E-17 -4.47359540E-19  2.51267310E-02
 -1.89747027E-18  2.97131700E-17  3.18826675E-17 -5.53893990E-18 -1.61089408E-16
 -2.23993242E-17 -6.19449494E-17 -1.14782644E-18  1.48050498E-16 -1.01454023E-18
 -5.67319564E-18  3.42665239E-01  0.00000000E+00 -7.18905580E-21  2.95290384E-17
  7.32465846E-01  0.00000000E+00  2.42316073E-18 -7.88448235E-18  1.46672559E-18
  3.53604637E-18 -2.45840446E-18  2.36423443E-02  0.00000000E+00 -1.01454023E-18
 -5.67319564E-18 -3.42665239E-01  0.00000000E+00  7.18905580E-21  2.95290384E-17
 -7.32465846E-01  0.00000000E+00 -2.42316073E-18 -7.88448235E-18  1.46672559E-18
  3.53604637E-18 -2.45840446E-18  2.36423443E-02  0.00000000E+00 -3.68812997E-18
 -1.26946962E-17 -3.68812997E-18 -1.26946962E-17 -3.68812997E-18 -1.26946962E-17
 -3.68812997E-18 -1.26946962E-17 -7.83415257E-02  8.12443606E-02  0.00000000E+00
  5.15034965E-17  1.45704747E-01  1.46606805E+00  0.00000000E+00  2.89746352E-17
  6.32533407E-01 -4.60320515E-03 -1.11983369E-02  4.04761256E-03  0.00000000E+00
  0.00000000E+00  4.79417249E-18 -7.83415257E-02  8.12443606E-02  0.00000000E+00
 -1.59385933E-17 -1.45704747E-01  1.46606805E+00  0.00000000E+00 -1.45910646E-17
 -6.32533407E-01 -4.60320515E-03 -1.11983369E-02  4.04761256E-03  0.00000000E+00
  0.00000000E+00  3.31027925E-18 -1.59020940E-02 -1.02078925E+00 -1.59020940E-02
 -1.02078925E+00 -1.59020940E-02 -1.02078925E+00 -1.59020940E-02 -1.02078925E+00
  2.29857980E-17 -2.14672651E-16  4.65604356E-18 -2.53359751E-01 -1.48311512E-16
  1.08618978E-15 -1.32656088E-17 -8.05966015E-01 -4.46505260E-16 -8.62711329E-17
 -1.02187119E-16  2.43946227E-17 -7.50842764E-18  8.31821712E-18  2.18943144E-02
  3.21761482E-17  1.24869304E-16 -4.65604356E-18 -2.53359751E-01 -8.11627525E-17
 -1.53470030E-15  1.32656088E-17 -8.05966015E-01 -3.08346450E-16  1.35027780E-16
  1.32136234E-16  6.82521243E-18  7.10183440E-19  8.31821712E-18 -2.18943144E-02
  4.07822114E-02  1.08803016E+00 -4.07822114E-02 -1.08803016E+00  4.07822114E-02
  1.08803016E+00 -4.07822114E-02 -1.08803016E+00 -1.08926434E-01  1.04474769E-01
 -2.53500129E-17 -3.45605522E-17  9.83476996E-02  1.91024503E+00  7.79817071E-17
 -7.68180645E-17  1.48538830E-01 -1.07292215E-02  7.57597466E-04 -4.43722207E-03
 -7.18324054E-18 -7.75782327E-18  4.19981048E-17  1.08926434E-01 -1.04474769E-01
  2.53500129E-17 -9.86460423E-17  9.83476996E-02 -1.91024503E+00 -7.79817071E-17
 -4.45679581E-16  1.48538830E-01  1.07292215E-02 -7.57597466E-04  4.43722207E-03
  5.52855292E-19 -7.75782327E-18  2.59296684E-17 -1.97165670E-02 -1.06397901E+00
 -1.97165670E-02 -1.06397901E+00  1.97165670E-02  1.06397901E+00  1.97165670E-02
  1.06397901E+00  7.07247446E-18  1.67314230E-16  2.04902959E-17  2.49035592E-01
  1.09924654E-16 -1.31335103E-16 -1.04695090E-16  1.86745130E+00  1.90524188E-16
  4.26987688E-17 -8.13986609E-18  4.30186641E-17 -3.74529951E-19  2.31116213E-17
  1.73556717E-02 -9.00525537E-17  1.95742117E-16 -2.04902959E-17 -2.49035592E-01
 -1.49499205E-16  1.30118522E-15  1.04695090E-16 -1.86745130E+00 -2.91093523E-16
  3.68877083E-17 -1.28319419E-17  3.95440960E-17 -3.74529951E-19  2.31116213E-17
  1.73556717E-02  3.92271739E-02 -1.60978145E+00 -3.92271739E-02  1.60978145E+00
 -3.92271739E-02  1.60978145E+00  3.92271739E-02 -1.60978145E+00 -6.74712560E-02
  4.18458343E-03 -4.39248615E-17 -1.41996217E-16 -1.36110087E-01  2.98539932E+00
 -7.75207137E-18 -4.48662320E-16 -2.91205847E+00 -1.14866609E-02  2.36923065E-02
  8.33123177E-04  4.94468615E-18  3.60851979E-17 -2.23959587E-18  6.74712560E-02
 -4.18458343E-03  4.39248615E-17  1.30437562E-16 -1.36110087E-01 -2.98539932E+00
  7.75207137E-18  6.58773951E-16 -2.91205847E+00  1.14866609E-02 -2.36923065E-02
 -8.33123177E-04 -3.80565831E-19  3.60851979E-17  8.15471951E-18  8.06324432E-02
  5.57858391E-01  8.06324432E-02  5.57858391E-01 -8.06324432E-02 -5.57858391E-01
 -8.06324432E-02 -5.57858391E-01  2.20586413E-02  1.98879915E-01  0.00000000E+00
 -3.47642874E-17 -5.56054414E-01  1.99144330E-01  0.00000000E+00 -1.67347591E-16
  1.02350862E+00  3.03068328E-04 -3.51396732E-02  7.89367443E-02  0.00000000E+00
  0.00000000E+00 -3.78788768E-18  2.20586413E-02  1.98879915E-01  0.00000000E+00
  2.92375690E-17  5.56054414E-01  1.99144330E-01  0.00000000E+00  2.11486730E-16
 -1.02350862E+00  3.03068328E-04 -3.51396732E-02  7.89367443E-02  0.00000000E+00
  0.00000000E+00 -1.41719233E-18 -1.01403106E-01 -5.37914044E-02 -1.01403106E-01
 -5.37914044E-02 -1.01403106E-01 -5.37914044E-02 -1.01403106E-01 -5.37914044E-02
  2.86274808E-17 -3.47898585E-17 -2.08182025E-18 -4.00677855E-01  8.21517419E-17
 -7.44650609E-16  7.59542302E-19  7.72279091E-01  1.63903978E-16  6.05961421E-17
  8.13818675E-17  2.20766778E-17  8.25506304E-18 -3.12954467E-18 -9.52315702E-02
 -1.68801156E-17 -9.56276458E-17  2.08182025E-18 -4.00677855E-01  1.14479521E-17
  9.10624149E-16 -7.59542302E-19  7.72279091E-01  1.78996455E-16 -7.05432303E-17
 -4.06316270E-17 -2.77148171E-17 -1.21080122E-18 -3.12954467E-18  9.52315702E-02
 -3.89603650E-01 -6.35052136E-02  3.89603650E-01  6.35052136E-02 -3.89603650E-01
 -6.35052136E-02  3.89603650E-01  6.35052136E-02 -1.38693228E-17  3.98359620E-17
  7.40735941E-01 -1.49308219E-17  6.89720774E-18  2.63319141E-16 -6.39714571E-01
  1.46106668E-16 -1.62501186E-16 -3.65711161E-17 -3.76986982E-17 -3.73603340E-17
  1.50643994E-18 -6.83704844E-02  4.50509338E-19 -3.35526168E-18  6.65729003E-17
  7.40735941E-01  1.79553213E-17  1.96756297E-17 -2.11734719E-16 -6.39714571E-01
 -1.63726736E-16 -1.78202685E-16 -1.03848873E-17 -8.69258986E-18 -2.40871435E-17
 -5.29083251E-19  6.83704844E-02  3.22730972E-18 -1.34329534E-17 -5.97722400E-17
  5.40197435E-18  9.27801635E-17  1.89132242E-17  5.10917896E-17 -2.81816685E-18
 -1.35633879E-16 -4.10346387E-02 -7.85024124E-01  0.00000000E+00  4.26693944E-17
  2.59163289E-02  1.50327496E+00  0.00000000E+00  2.84103597E-16  3.34162712E-01
  4.08612172E-02 -1.55636399E-01 -9.50489486E-02  0.00000000E+00  0.00000000E+00
 -1.72213520E-17 -4.10346387E-02 -7.85024124E-01  0.00000000E+00  1.13987340E-16
 -2.59163289E-02  1.50327496E+00  0.00000000E+00  4.72274429E-16 -3.34162712E-01
  4.08612172E-02 -1.55636399E-01 -9.50489486E-02  0.00000000E+00  0.00000000E+00
  9.69786325E-18 -3.83441165E-01 -2.36487381E-01 -3.83441165E-01 -2.36487381E-01
 -3.83441165E-01 -2.36487381E-01 -3.83441165E-01 -2.36487381E-01 -5.04966728E-19
  1.54601584E-18 -8.18258761E-01  0.00000000E+00  1.76952941E-19  1.98093389E-17
  1.07350793E+00  0.00000000E+00  2.84606305E-18 -2.21148325E-18  3.19215947E-19
 -4.73481962E-18 -4.81397288E-19 -3.16520673E-02  0.00000000E+00 -5.04966728E-19
  1.54601584E-18  8.18258761E-01  0.00000000E+00 -1.76952941E-19  1.98093389E-17
 -1.07350793E+00  0.00000000E+00 -2.84606305E-18 -2.21148325E-18  3.19215947E-19
 -4.73481962E-18 -4.81397288E-19 -3.16520673E-02  0.00000000E+00  2.22805231E-19
 -9.38855854E-18  2.22805231E-19 -9.38855854E-18  2.22805231E-19 -9.38855854E-18
  2.22805231E-19 -9.38855854E-18 -9.54024712E-02 -6.03452885E-02 -1.19800723E-17
  4.41300415E-17 -5.98000197E-01  9.92729384E-01  2.66521032E-17  3.01396922E-16
  4.05990216E-01  9.08438822E-02 -5.10340018E-02 -1.76436844E-01 -6.90313948E-18
  9.71218623E-18  2.09280207E-17  9.54024712E-02  6.03452885E-02  1.19800723E-17
  2.34280119E-17 -5.98000197E-01 -9.92729384E-01 -2.66521032E-17 -1.38726165E-16
  4.05990216E-01 -9.08438822E-02  5.10340018E-02  1.76436844E-01  5.31297423E-19
  9.71218623E-18  2.15308403E-17 -3.78979405E-01 -8.53878081E-02 -3.78979405E-01
 -8.53878081E-02  3.78979405E-01  8.53878081E-02  3.78979405E-01  8.53878081E-02
  5.04522116E-17  6.44435216E-16 -2.54847165E-18 -6.91004001E-01  2.75418849E-16
 -3.94500405E-15  1.28817986E-17  1.10274560E+00  2.78283259E-15  1.52462859E-16
  1.98199910E-16  1.67344886E-16 -4.33183110E-18 -5.19387479E-18  1.85841410E-01
 -1.62262911E-17  2.35055174E-16  2.54847165E-18 -6.91004001E-01  1.00402325E-16
  2.56239979E-15 -1.28817986E-17  1.10274560E+00  3.19971488E-15 -1.59210901E-16
 -1.80266656E-17 -5.58367919E-18  1.45637713E-18 -5.19387479E-18 -1.85841410E-01
  3.81295388E-01 -1.05523713E+00 -3.81295388E-01  1.05523713E+00  3.81295388E-01
 -1.05523713E+00 -3.81295388E-01  1.05523713E+00  1.71901377E-17  5.42204766E-16
  1.78726923E-17 -9.23300799E-01  1.30452729E-16 -2.09738838E-15 -9.07595141E-17
  2.86064852E+00  1.26944540E-15  1.54492440E-17  3.30546274E-17  1.24764206E-17
 -1.06519055E-18  2.09866074E-17 -3.70459277E-03 -7.05884985E-17  5.58377506E-16
 -1.78726923E-17  9.23300799E-01 -2.51777009E-16  1.84293783E-15  9.07595141E-17
 -2.86064852E+00  1.45323842E-15 -3.49905738E-17  6.45941986E-17  7.77285033E-17
 -1.06519055E-18  2.09866074E-17 -3.70459277E-03  1.66253003E-01 -1.47271989E+00
 -1.66253003E-01  1.47271989E+00 -1.66253003E-01  1.47271989E+00  1.66253003E-01
 -1.47271989E+00  1.78578182E-02 -9.30794721E-01  0.00000000E+00  2.58989186E-16
 -3.65000636E-01  1.73453178E+00  0.00000000E+00 -1.48464197E-16  4.87819256E-01
 -1.13940919E-01  5.67134028E-02 -1.03501655E-01  0.00000000E+00  0.00000000E+00
  6.08438803E-18  1.78578182E-02 -9.30794721E-01  0.00000000E+00  2.20884395E-16
  3.65000636E-01  1.73453178E+00  0.00000000E+00  8.28334716E-16 -4.87819256E-01
 -1.13940919E-01  5.67134028E-02 -1.03501655E-01  0.00000000E+00  0.00000000E+00
 -1.43882534E-17  4.48945409E-01 -8.70261900E-01  4.48945409E-01 -8.70261900E-01
  4.48945409E-01 -8.70261900E-01  4.48945409E-01 -8.70261900E-01  1.94640019E-02
 -5.21972299E-01 -2.79353642E-18 -3.94471888E-16 -5.95058294E-01  7.67323519E-01
  3.59933752E-17  7.85792436E-16  1.13649464E+00 -9.75217813E-02  1.00420048E-01
 -1.38931909E-01  1.47257599E-18 -9.32887123E-18  1.28434998E-16 -1.94640019E-02
  5.21972299E-01  2.79353642E-18  1.67076371E-17 -5.95058294E-01 -7.67323519E-01
 -3.59933752E-17 -7.42000029E-16  1.13649464E+00  9.75217813E-02 -1.00420048E-01
  1.38931909E-01 -1.13336234E-19 -9.32887123E-18 -1.46620492E-17  4.68001340E-01
 -9.89492021E-01  4.68001340E-01 -9.89492021E-01 -4.68001340E-01  9.89492021E-01
 -4.68001340E-01  9.89492021E-01 -3.19989562E-02 -1.46807098E+00 -4.10411745E-17
  6.82975323E-16  3.10078005E-01  5.45428955E+00  6.93486917E-18 -2.00487569E-15
 -1.99679646E+00 -5.83240590E-02 -2.04419664E-01  4.60447187E-02 -4.13115828E-18
  1.74396577E-17 -1.39595558E-16  3.19989562E-02  1.46807098E+00  4.10411745E-17
  5.79099168E-16  3.10078005E-01 -5.45428955E+00 -6.93486917E-18  5.30693605E-16
 -1.99679646E+00  5.83240590E-02  2.04419664E-01 -4.60447187E-02  3.17952977E-19
  1.74396577E-17  1.70348230E-16 -1.30927703E-01 -3.00636654E-01 -1.30927703E-01
 -3.00636654E-01  1.30927703E-01  3.00636654E-01  1.30927703E-01  3.00636654E-01
  6.36316904E-18 -4.79602156E-16  1.36301369E-17 -6.05548954E-02  2.79330169E-16
  1.99381607E-15 -7.27166590E-17  2.61651393E+00 -1.32379595E-15  1.07285287E-16
  5.87203002E-17  1.26145608E-16  6.73198574E-19  1.08399852E-17 -1.65973859E-01
  4.10145295E-17  6.66552628E-16 -1.36301369E-17  6.05548954E-02 -1.63230337E-17
 -2.45221110E-15  7.27166590E-17 -2.61651393E+00 -1.04544395E-15  9.10722812E-17
  2.89709420E-16  9.10958738E-17  6.73198574E-19  1.08399852E-17 -1.65973859E-01
 -6.97369433E-01 -6.95029083E-01  6.97369433E-01  6.95029083E-01  6.97369433E-01
  6.95029083E-01 -6.97369433E-01 -6.95029083E-01  4.27742438E-18 -6.43436657E-17
  1.89380731E-01  1.59164817E-19 -2.35361147E-17  1.19167061E-16 -4.15113536E-02
 -1.29479154E-17 -7.76378910E-17  7.33910715E-18  2.17469139E-17  7.48031942E-17
 -3.17511450E-18  6.19251289E-01 -4.78875498E-18  3.17576912E-18 -2.58110874E-17
  1.89380731E-01  2.07084399E-18 -4.24349489E-17 -1.06288074E-16 -4.15113536E-02
 -9.06503966E-18 -7.07478968E-17  2.45694602E-17  1.71650530E-17 -3.63064709E-17
  3.98630640E-18 -6.19251289E-01  5.21669082E-19 -5.06137274E-18  1.28996700E-17
 -2.08323165E-17  3.59731650E-19  5.88800662E-19  1.34270133E-18  3.78182560E-18
 -2.33046461E-17 -1.04174731E-19  2.05350608E-18  0.00000000E+00  0.00000000E+00
 -6.54728512E-19 -1.74018584E-18  0.00000000E+00  0.00000000E+00 -2.33834681E-18
  1.88881119E-19 -3.49919664E-18 -8.73140457E-19  6.81372006E-01  0.00000000E+00
  0.00000000E+00 -1.04174731E-19  2.05350608E-18  0.00000000E+00  0.00000000E+00
  6.54728512E-19 -1.74018584E-18  0.00000000E+00  0.00000000E+00  2.33834681E-18
  1.88881119E-19 -3.49919664E-18 -8.73140457E-19  6.81372006E-01  0.00000000E+00
  0.00000000E+00  5.62293387E-18 -1.29984955E-18  5.62293387E-18 -1.29984955E-18
  5.62293387E-18 -1.29984955E-18  5.62293387E-18 -1.29984955E-18 -1.12526271E-19
  2.21813273E-18 -1.19754155E-18 -6.49011450E-19 -7.07217165E-19 -1.87969407E-18
 -3.91752320E-18  1.81650256E-18 -2.52580875E-18  2.04023449E-19 -3.77972225E-18
 -9.43138885E-19  7.35996629E-01  1.25576953E-18  3.42568740E-18 -1.12526271E-19
  2.21813273E-18  1.19754155E-18  6.49011450E-19  7.07217165E-19 -1.87969407E-18
  3.91752320E-18 -1.81650256E-18  2.52580875E-18  2.04023449E-19 -3.77972225E-18
 -9.43138885E-19 -7.35996629E-01  1.25576953E-18  3.42568740E-18  1.10334139E-18
 -4.70461768E-19  1.10440915E-17 -2.33765150E-18  1.10440915E-17 -2.33765150E-18
  1.10334139E-18 -4.70461768E-19  3.53821738E-02  1.73351242E-01  0.00000000E+00
  6.50424581E-17 -1.05525884E-01 -6.11330857E-01  0.00000000E+00  3.75887907E-16
 -1.79963920E-01  7.18804934E-01 -5.08321222E-01 -1.20999157E-01  0.00000000E+00
  0.00000000E+00 -3.58443345E-17  3.53821738E-02  1.73351242E-01  0.00000000E+00
  4.25000232E-17  1.05525884E-01 -6.11330857E-01  0.00000000E+00 -8.49832993E-16
  1.79963920E-01  7.18804934E-01 -5.08321222E-01 -1.20999157E-01  0.00000000E+00
  0.00000000E+00 -2.84806659E-17  3.59875933E-01  1.05952748E-01  3.59875933E-01
  1.05952748E-01  3.59875933E-01  1.05952748E-01  3.59875933E-01  1.05952748E-01
  2.47029894E-17 -2.35162849E-16 -2.03839710E-18  2.63885977E-01 -1.13433606E-16
  3.96977219E-16 -1.03563962E-18  2.09797277E-01 -4.39563467E-16 -1.11246747E-17
  7.67616821E-17  4.67045924E-17  5.80532910E-18 -2.86137886E-18  6.88408186E-01
 -4.59191053E-18  6.30780578E-17  2.03839710E-18  2.63885977E-01 -2.06035668E-16
 -5.13221648E-16  1.03563962E-18  2.09797277E-01 -3.01695698E-16  2.72881042E-17
  1.16490039E-18 -2.07630106E-17  3.71302281E-18 -2.86137886E-18 -6.88408186E-01
 -5.09245241E-01  8.33430219E-02  5.09245241E-01 -8.33430219E-02 -5.09245241E-01
  8.33430219E-02  5.09245241E-01 -8.33430219E-02 -2.48380551E-02 -3.45788122E-01
  0.00000000E+00 -4.37288753E-17  2.75922287E-01  1.97615635E-01  0.00000000E+00
  4.13578221E-17 -4.42323829E-01 -2.76973049E-01 -5.80741947E-01  6.06817446E-01
  0.00000000E+00  0.00000000E+00  1.82373013E-17 -2.48380551E-02 -3.45788122E-01
  0.00000000E+00  2.50038827E-16 -2.75922287E-01  1.97615635E-01  0.00000000E+00
 -1.32732305E-16  4.42323829E-01 -2.76973049E-01 -5.80741947E-01  6.06817446E-01
  0.00000000E+00  0.00000000E+00  3.46083879E-17  1.76721578E-01 -4.90614873E-02
  1.76721578E-01 -4.90614873E-02  1.76721578E-01 -4.90614873E-02  1.76721578E-01
 -4.90614873E-02 -4.53171675E-02 -2.62411558E-01 -1.02931320E-17  4.15131559E-16
  9.15689252E-02  1.40141376E+00  1.81892735E-17 -1.64245369E-15 -3.08037473E-01
 -7.13781232E-01  6.66943370E-01 -2.25252532E-02 -7.35092018E-18  3.40665512E-18
 -5.02906600E-17  4.53171675E-02  2.62411558E-01  1.02931320E-17  1.43357657E-16
  9.15689252E-02 -1.40141376E+00 -1.81892735E-17  8.64650139E-16 -3.08037473E-01
  7.13781232E-01 -6.66943370E-01  2.25252532E-02  5.65760690E-19  3.40665512E-18
  2.24486543E-16 -4.37854702E-01 -1.66934800E-03 -4.37854702E-01 -1.66934800E-03
  4.37854702E-01  1.66934800E-03  4.37854702E-01  1.66934800E-03 -1.18169734E-18
 -4.70502180E-18 -1.24102781E-01  0.00000000E+00  6.65474181E-18  1.10762134E-17
 -2.64143147E-01  0.00000000E+00  6.01329985E-19  6.43575298E-18 -2.24594668E-18
 -1.21903309E-17  5.99495666E-18  9.01676373E-01  0.00000000E+00 -1.18169734E-18
 -4.70502180E-18  1.24102781E-01  0.00000000E+00 -6.65474181E-18  1.10762134E-17
  2.64143147E-01  0.00000000E+00 -6.01329985E-19  6.43575298E-18 -2.24594668E-18
 -1.21903309E-17  5.99495666E-18  9.01676373E-01  0.00000000E+00 -1.69176546E-18
 -2.60929570E-18 -1.69176546E-18 -2.60929570E-18 -1.69176546E-18 -2.60929570E-18
 -1.69176546E-18 -2.60929570E-18 -5.94701964E-18 -1.78277434E-16  3.60886658E-18
 -7.38617864E-02  1.34398178E-16  1.09274191E-15 -2.04373384E-17  5.43816711E-01
 -9.24136191E-16  7.50636696E-17  2.57940761E-17  5.43225882E-17  8.04721343E-18
  1.12345957E-18  9.62568879E-01  3.74703317E-17  7.09095787E-17 -3.60886658E-18
  7.38617864E-02  2.13190754E-17 -1.29495219E-15  2.04373384E-17 -5.43816711E-01
 -8.26533355E-16 -1.72838320E-17  1.83353374E-16  1.41714015E-17  8.04721343E-18
  1.12345957E-18  9.62568879E-01 -4.63355505E-01 -3.92489193E-02  4.63355505E-01
  3.92489193E-02  4.63355505E-01  3.92489193E-02 -4.63355505E-01 -3.92489193E-02
 -6.66499804E-02  3.11555127E-01 -2.46461713E-17  3.21699848E-16 -7.92737625E-01
  2.01217489E+00  3.63195760E-17 -1.59191041E-15 -1.16827241E+00 -5.53709033E-01
 -5.57201622E-01  1.11072419E+00  5.42590823E-19  2.35966853E-17  6.80729986E-17
  6.66499804E-02 -3.11555127E-01  2.46461713E-17  3.96147372E-17 -7.92737625E-01
 -2.01217489E+00 -3.63195760E-17  1.02426037E-15 -1.16827241E+00  5.53709033E-01
  5.57201622E-01 -1.11072419E+00 -4.17602899E-20  2.35966853E-17  2.14151622E-16
  1.19789190E-02  5.30656288E-02  1.19789190E-02  5.30656288E-02 -1.19789190E-02
 -5.30656288E-02 -1.19789190E-02 -5.30656288E-02 -3.27735977E-01  2.24146583E+00
  0.00000000E+00  1.71209238E-16 -1.05214130E-01  9.18022478E-01  0.00000000E+00
 -3.70447764E-17  1.17968433E-01 -1.27566787E+00 -1.30347939E+00 -1.24070487E+00
  0.00000000E+00  0.00000000E+00  8.09425595E-17 -3.27735977E-01  2.24146583E+00
  0.00000000E+00 -3.72782621E-16  1.05214130E-01  9.18022478E-01  0.00000000E+00
  1.06247811E-15 -1.17968433E-01 -1.27566787E+00 -1.30347939E+00 -1.24070487E+00
  0.00000000E+00  0.00000000E+00  9.05627993E-17  1.30188765E-01 -2.96402170E-01
  1.30188765E-01 -2.96402170E-01  1.30188765E-01 -2.96402170E-01  1.30188765E-01
 -2.96402170E-01 -3.36903332E-01  2.04926981E+00 -3.19768294E-17  2.73426113E-16
  3.50112631E-01  1.86534719E+00 -5.02656265E-18 -2.13266631E-15 -1.90406578E-01
 -1.25106901E+00 -1.28193409E+00 -1.70117057E+00 -4.17452445E-19  2.96378559E-17
  9.77690974E-17  3.36903332E-01 -2.04926981E+00  3.19768294E-17 -3.43016710E-16
  3.50112631E-01 -1.86534719E+00  5.02656265E-18  1.46141595E-15 -1.90406578E-01
  1.25106901E+00  1.28193409E+00  1.70117057E+00  3.21290638E-20  2.96378559E-17
  1.86530916E-16  1.03812964E-01 -3.35023235E-01  1.03812964E-01 -3.35023235E-01
 -1.03812964E-01  3.35023235E-01 -1.03812964E-01  3.35023235E-01
Total SCF Density                          R   N=         741
  2.06055362E+00 -9.50261103E-02  2.88101446E-01  7.37676870E-20 -2.42236958E-19
  2.78953112E-01  7.37676870E-20 -2.42236958E-19  5.05636651E-16  3.89742112E-01
  2.40943551E-03 -7.91205948E-03  3.93272120E-18  5.40786354E-19  4.07405534E-01
 -1.51874890E-01  2.46649735E-01  1.25671302E-18  1.25671302E-18  4.10473622E-02