
9/18/03, C2H4 with g98 & 6-31G(d)                                       
SP        RHF                                                         6-31G(d)
Number of atoms                            I                6
Charge                                     I                0
Multiplicity                               I                1
Number of electrons                        I               16
Number of alpha electrons                  I                8
Number of beta electrons                   I                8
Number of basis functions                  I               38
Number of independant functions            I               38
Number of contracted shells                I               16
Highest angular momentum                   I                2
Largest degree of contraction              I                6
Number of primitive shells                 I               38
Viriral Ratio                              R      2.002317033866434E+00
SCF Energy                                 R     -7.803069666350663E+01
Total Energy                               R     -7.803069666350663E+01
RMS Density                                R      1.867943055444615E-05
Atomic numbers                             I   N=           6
           6           6           1           1           1           1
Nuclear charges                            R   N=           6
  6.00000000E+00  6.00000000E+00  1.00000000E+00  1.00000000E+00  1.00000000E+00
  1.00000000E+00
Current cartesian coordinates              R   N=          18
  0.00000000E+00  0.00000000E+00  1.26600000E+00  1.55035164E-16  0.00000000E+00
 -1.26600000E+00  0.00000000E+00  1.75500000E+00  2.33000000E+00 -2.14918415E-16
 -1.75500000E+00  2.33000000E+00  2.85333280E-16  1.75500000E+00 -2.33000000E+00
 -2.14918415E-16 -1.75500000E+00 -2.33000000E+00
Atom types                                 I   N=           6
           0           0           0           0           0           0
Force Field                                I                0
MM charges                                 R   N=           6
  0.00000000E+00  0.00000000E+00  0.00000000E+00  0.00000000E+00  0.00000000E+00
  0.00000000E+00
ONIOM Charges                              I   N=           4
           0           0           0           0
ONIOM Multiplicities                       I   N=           4
           1           0           0           0
Atom Layers                                I   N=           6
           1           1           1           1           1           1
Atom Modifiers                             I   N=           6
           0           0           0           0           0           0
Atom types                                 I   N=           6
           0           0           0           0           0           0
Link Atoms                                 I   N=           6
           0           0           0           0           0           0
Atom Modified MM Charges                   R   N=           6
  0.00000000E+00  0.00000000E+00  0.00000000E+00  0.00000000E+00  0.00000000E+00
  0.00000000E+00
Link Distances                             R   N=           6
  0.00000000E+00  0.00000000E+00  0.00000000E+00  0.00000000E+00  0.00000000E+00
  0.00000000E+00
MxBond                                     I                3
NBond                                      I   N=           6
           3           3           1           1           1           1
IBond                                      I   N=          18
           2           3           4           1           5           6
           1           0           0           1           0           0
           2           0           0           2           0           0
RBond                                      R   N=          18
  2.00000000E+00  1.00000000E+00  1.00000000E+00  2.00000000E+00  1.00000000E+00
  1.00000000E+00  1.00000000E+00  0.00000000E+00  0.00000000E+00  1.00000000E+00
  0.00000000E+00  0.00000000E+00  1.00000000E+00  0.00000000E+00  0.00000000E+00
  1.00000000E+00  0.00000000E+00  0.00000000E+00
Shell types                                I   N=          16
           0          -1          -1           2           0          -1
          -1           2           0           0           0           0
           0           0           0           0
Number of primitives per shell             I   N=          16
           6           3           1           1           6           3
           1           1           3           1           3           1
           3           1           3           1
Shell to atom map                          I   N=          16
           1           1           1           1           2           2
           2           2           3           3           4           4
           5           5           6           6
Primitive exponents                        R   N=          38
  3.04752488E+03  4.57369518E+02  1.03948685E+02  2.92101553E+01  9.28666296E+00
  3.16392696E+00  7.86827235E+00  1.88128854E+00  5.44249258E-01  1.68714478E-01
  8.00000000E-01  3.04752488E+03  4.57369518E+02  1.03948685E+02  2.92101553E+01
  9.28666296E+00  3.16392696E+00  7.86827235E+00  1.88128854E+00  5.44249258E-01
  1.68714478E-01  8.00000000E-01  1.87311370E+01  2.82539436E+00  6.40121692E-01
  1.61277759E-01  1.87311370E+01  2.82539436E+00  6.40121692E-01  1.61277759E-01
  1.87311370E+01  2.82539436E+00  6.40121692E-01  1.61277759E-01  1.87311370E+01
  2.82539436E+00  6.40121692E-01  1.61277759E-01
Contraction coefficients                   R   N=          38
  1.83473713E-03  1.40373228E-02  6.88426223E-02  2.32184443E-01  4.67941348E-01
  3.62311985E-01 -1.19332420E-01 -1.60854152E-01  1.14345644E+00  1.00000000E+00
  1.00000000E+00  1.83473713E-03  1.40373228E-02  6.88426223E-02  2.32184443E-01
  4.67941348E-01  3.62311985E-01 -1.19332420E-01 -1.60854152E-01  1.14345644E+00
  1.00000000E+00  1.00000000E+00  3.34946043E-02  2.34726953E-01  8.13757326E-01
  1.00000000E+00  3.34946043E-02  2.34726953E-01  8.13757326E-01  1.00000000E+00
  3.34946043E-02  2.34726953E-01  8.13757326E-01  1.00000000E+00  3.34946043E-02
  2.34726953E-01  8.13757326E-01  1.00000000E+00
P(S=P) Contraction coefficients            R   N=          38
  0.00000000E+00  0.00000000E+00  0.00000000E+00  0.00000000E+00  0.00000000E+00
  0.00000000E+00  6.89990666E-02  3.16423961E-01  7.44308291E-01  1.00000000E+00
  0.00000000E+00  0.00000000E+00  0.00000000E+00  0.00000000E+00  0.00000000E+00
  0.00000000E+00  0.00000000E+00  6.89990666E-02  3.16423961E-01  7.44308291E-01
  1.00000000E+00  0.00000000E+00  0.00000000E+00  0.00000000E+00  0.00000000E+00
  0.00000000E+00  0.00000000E+00  0.00000000E+00  0.00000000E+00  0.00000000E+00
  0.00000000E+00  0.00000000E+00  0.00000000E+00  0.00000000E+00  0.00000000E+00
  0.00000000E+00  0.00000000E+00  0.00000000E+00
Coordinates of each shell                  R   N=          48
  0.00000000E+00  0.00000000E+00  1.26600000E+00  0.00000000E+00  0.00000000E+00
  1.26600000E+00  0.00000000E+00  0.00000000E+00  1.26600000E+00  0.00000000E+00
  0.00000000E+00  1.26600000E+00  1.55035164E-16  0.00000000E+00 -1.26600000E+00
  1.55035164E-16  0.00000000E+00 -1.26600000E+00  1.55035164E-16  0.00000000E+00
 -1.26600000E+00  1.55035164E-16  0.00000000E+00 -1.26600000E+00  0.00000000E+00
  1.75500000E+00  2.33000000E+00  0.00000000E+00  1.75500000E+00  2.33000000E+00
 -2.14918415E-16 -1.75500000E+00  2.33000000E+00 -2.14918415E-16 -1.75500000E+00
  2.33000000E+00  2.85333280E-16  1.75500000E+00 -2.33000000E+00  2.85333280E-16
  1.75500000E+00 -2.33000000E+00 -2.14918415E-16 -1.75500000E+00 -2.33000000E+00
 -2.14918415E-16 -1.75500000E+00 -2.33000000E+00
Alpha Orbital Energies                     R   N=          38
 -1.12302928E+01 -1.12286908E+01 -1.02526678E+00 -7.86802769E-01 -6.37018444E-01
 -5.78763406E-01 -5.03962044E-01 -3.69171821E-01  1.78417850E-01  2.63111136E-01
  2.91705273E-01  3.07205165E-01  3.89894272E-01  4.88283809E-01  6.68787654E-01
  7.69672025E-01  7.76804335E-01  8.50963281E-01  8.89525642E-01  9.51167159E-01
  1.11050614E+00  1.15558503E+00  1.19781734E+00  1.20693383E+00  1.32956091E+00
  1.48271323E+00  1.73948223E+00  1.82291331E+00  2.12788923E+00  2.20100602E+00
  2.31485908E+00  2.40001602E+00  2.62129738E+00  2.70728901E+00  3.03524545E+00
  3.06092449E+00  4.51688913E+00  4.66992634E+00
Alpha MO coefficients                      R   N=        1444
  7.03787193E-01  1.91192687E-02  0.00000000E+00  0.00000000E+00  1.57394684E-04
 -5.26963545E-03  0.00000000E+00  0.00000000E+00 -7.08160953E-04 -1.82784002E-03
 -1.58907760E-03 -1.33668551E-03  0.00000000E+00  0.00000000E+00  0.00000000E+00
  7.03787193E-01  1.91192687E-02  0.00000000E+00  0.00000000E+00 -1.57394684E-04
 -5.26963545E-03  0.00000000E+00  0.00000000E+00  7.08160953E-04 -1.82784002E-03
 -1.58907760E-03 -1.33668551E-03  0.00000000E+00  0.00000000E+00  0.00000000E+00
 -1.47595453E-04  1.45484596E-03 -1.47595453E-04  1.45484596E-03 -1.47595453E-04
  1.45484596E-03 -1.47595453E-04  1.45484596E-03  7.04239907E-01  1.95689039E-02
  0.00000000E+00  0.00000000E+00 -1.67994249E-04 -1.09460434E-02  0.00000000E+00
  0.00000000E+00  1.63893739E-03 -1.72721035E-03 -1.23544514E-03 -9.26227549E-04
  0.00000000E+00  0.00000000E+00  0.00000000E+00 -7.04239907E-01 -1.95689039E-02
  0.00000000E+00  0.00000000E+00 -1.67994249E-04  1.09460434E-02  0.00000000E+00
  0.00000000E+00  1.63893739E-03  1.72721035E-03  1.23544514E-03  9.26227549E-04
  0.00000000E+00  0.00000000E+00  0.00000000E+00 -5.89277220E-05  1.51871871E-03
 -5.89277220E-05  1.51871871E-03  5.89277220E-05 -1.51871871E-03  5.89277220E-05
 -1.51871871E-03 -1.56499604E-01  2.97168282E-01  0.00000000E+00  0.00000000E+00
 -1.04092635E-01  2.31621345E-01  0.00000000E+00  0.00000000E+00 -6.98751997E-03
 -1.27499495E-02  5.16824214E-03  1.69590397E-02  0.00000000E+00  0.00000000E+00
  0.00000000E+00 -1.56499604E-01  2.97168282E-01  0.00000000E+00  0.00000000E+00
  1.04092635E-01  2.31621345E-01  0.00000000E+00  0.00000000E+00  6.98751997E-03
 -1.27499495E-02  5.16824214E-03  1.69590397E-02  0.00000000E+00  0.00000000E+00
  0.00000000E+00  8.29822717E-02  1.67836233E-02  8.29822717E-02  1.67836233E-02
  8.29822717E-02  1.67836233E-02  8.29822717E-02  1.67836233E-02 -1.19891156E-01
  2.32743578E-01  0.00000000E+00  0.00000000E+00  1.66030613E-01  2.37108700E-01
  0.00000000E+00  0.00000000E+00  6.65524776E-02 -1.09487605E-02  2.40899414E-02
  3.48998921E-04  0.00000000E+00  0.00000000E+00  0.00000000E+00  1.19891156E-01
 -2.32743578E-01  0.00000000E+00  0.00000000E+00  1.66030613E-01 -2.37108700E-01
  0.00000000E+00  0.00000000E+00  6.65524776E-02  1.09487605E-02 -2.40899414E-02
 -3.48998921E-04  0.00000000E+00  0.00000000E+00  0.00000000E+00  1.45851016E-01
  6.72600012E-02  1.45851016E-01  6.72600012E-02 -1.45851016E-01 -6.72600012E-02
 -1.45851016E-01 -6.72600012E-02  0.00000000E+00  0.00000000E+00  0.00000000E+00
  3.20348043E-01  0.00000000E+00  0.00000000E+00  0.00000000E+00  1.29560539E-01
  0.00000000E+00  0.00000000E+00  0.00000000E+00  0.00000000E+00  0.00000000E+00
  0.00000000E+00  1.33631916E-02  0.00000000E+00  0.00000000E+00  0.00000000E+00
  3.20348043E-01  0.00000000E+00  0.00000000E+00  0.00000000E+00  1.29560539E-01
  0.00000000E+00  0.00000000E+00  0.00000000E+00  0.00000000E+00  0.00000000E+00
  0.00000000E+00 -1.33631916E-02  1.57613680E-01  1.08474865E-01 -1.57613680E-01
 -1.08474865E-01  1.57613680E-01  1.08474865E-01 -1.57613680E-01 -1.08474865E-01
  1.18722531E-02 -2.86897227E-02  0.00000000E+00  0.00000000E+00  4.06576907E-01
  1.29685244E-02  0.00000000E+00  0.00000000E+00  1.56674116E-01 -1.49280189E-03
  2.65509261E-02 -1.19189498E-02  0.00000000E+00  0.00000000E+00  0.00000000E+00
  1.18722531E-02 -2.86897227E-02  0.00000000E+00  0.00000000E+00 -4.06576907E-01
  1.29685244E-02  0.00000000E+00  0.00000000E+00 -1.56674116E-01 -1.49280189E-03
  2.65509261E-02 -1.19189498E-02  0.00000000E+00  0.00000000E+00  0.00000000E+00
  1.24291119E-01  1.01858126E-01  1.24291119E-01  1.01858126E-01  1.24291119E-01
  1.01858126E-01  1.24291119E-01  1.01858126E-01  0.00000000E+00  0.00000000E+00
  0.00000000E+00  3.03735720E-01  0.00000000E+00  0.00000000E+00  0.00000000E+00
  1.96211544E-01  0.00000000E+00  0.00000000E+00  0.00000000E+00  0.00000000E+00
  0.00000000E+00  0.00000000E+00  3.64986617E-02  0.00000000E+00  0.00000000E+00
  0.00000000E+00 -3.03735720E-01  0.00000000E+00  0.00000000E+00  0.00000000E+00
 -1.96211544E-01  0.00000000E+00  0.00000000E+00  0.00000000E+00  0.00000000E+00
  0.00000000E+00  0.00000000E+00  3.64986617E-02  1.88523508E-01  1.54402942E-01
 -1.88523508E-01 -1.54402942E-01 -1.88523508E-01 -1.54402942E-01  1.88523508E-01
  1.54402942E-01  0.00000000E+00  0.00000000E+00  3.73457371E-01  0.00000000E+00
  0.00000000E+00  0.00000000E+00  3.07920124E-01  0.00000000E+00  0.00000000E+00
  0.00000000E+00  0.00000000E+00  0.00000000E+00  0.00000000E+00 -2.51216065E-02
  0.00000000E+00  0.00000000E+00  0.00000000E+00  3.73457371E-01  0.00000000E+00
  0.00000000E+00  0.00000000E+00  3.07920124E-01  0.00000000E+00  0.00000000E+00
  0.00000000E+00  0.00000000E+00  0.00000000E+00  0.00000000E+00  2.51216065E-02
  0.00000000E+00  0.00000000E+00  0.00000000E+00  0.00000000E+00  0.00000000E+00
  0.00000000E+00  0.00000000E+00  0.00000000E+00  0.00000000E+00  0.00000000E+00
  0.00000000E+00  3.42672665E-01  0.00000000E+00  0.00000000E+00  0.00000000E+00
  7.32454387E-01  0.00000000E+00  0.00000000E+00  0.00000000E+00  0.00000000E+00
  0.00000000E+00  0.00000000E+00  2.36462754E-02  0.00000000E+00  0.00000000E+00
  0.00000000E+00 -3.42672665E-01  0.00000000E+00  0.00000000E+00  0.00000000E+00
 -7.32454387E-01  0.00000000E+00  0.00000000E+00  0.00000000E+00  0.00000000E+00
  0.00000000E+00  0.00000000E+00  2.36462754E-02  0.00000000E+00  0.00000000E+00
  0.00000000E+00  0.00000000E+00  0.00000000E+00  0.00000000E+00  0.00000000E+00
  0.00000000E+00  0.00000000E+00 -7.83423980E-02  8.12499446E-02  0.00000000E+00
  0.00000000E+00  1.45710320E-01  1.46605402E+00  0.00000000E+00  0.00000000E+00
  6.32516484E-01 -4.60343145E-03 -1.12011168E-02  4.04816448E-03  0.00000000E+00
  0.00000000E+00  0.00000000E+00 -7.83423980E-02  8.12499446E-02  0.00000000E+00
  0.00000000E+00 -1.45710320E-01  1.46605402E+00  0.00000000E+00  0.00000000E+00
 -6.32516484E-01 -4.60343145E-03 -1.12011168E-02  4.04816448E-03  0.00000000E+00
  0.00000000E+00  0.00000000E+00 -1.59072878E-02 -1.02078237E+00 -1.59072878E-02
 -1.02078237E+00 -1.59072878E-02 -1.02078237E+00 -1.59072878E-02 -1.02078237E+00
  0.00000000E+00  0.00000000E+00  0.00000000E+00 -2.53363658E-01  0.00000000E+00
  0.00000000E+00  0.00000000E+00 -8.05949538E-01  0.00000000E+00  0.00000000E+00
  0.00000000E+00  0.00000000E+00  0.00000000E+00  0.00000000E+00  2.18953273E-02
  0.00000000E+00  0.00000000E+00  0.00000000E+00 -2.53363658E-01  0.00000000E+00
  0.00000000E+00  0.00000000E+00 -8.05949538E-01  0.00000000E+00  0.00000000E+00
  0.00000000E+00  0.00000000E+00  0.00000000E+00  0.00000000E+00 -2.18953273E-02
  4.07875421E-02  1.08802071E+00 -4.07875421E-02 -1.08802071E+00  4.07875421E-02
  1.08802071E+00 -4.07875421E-02 -1.08802071E+00 -1.08926533E-01  1.04481206E-01
  0.00000000E+00  0.00000000E+00  9.83534100E-02  1.91025629E+00  0.00000000E+00
  0.00000000E+00  1.48503349E-01 -1.07297120E-02  7.55151462E-04 -4.43604145E-03
  0.00000000E+00  0.00000000E+00  0.00000000E+00  1.08926533E-01 -1.04481206E-01
  0.00000000E+00  0.00000000E+00  9.83534100E-02 -1.91025629E+00  0.00000000E+00
  0.00000000E+00  1.48503349E-01  1.07297120E-02 -7.55151462E-04  4.43604145E-03
  0.00000000E+00  0.00000000E+00  0.00000000E+00 -1.97202086E-02 -1.06396505E+00
 -1.97202086E-02 -1.06396505E+00  1.97202086E-02  1.06396505E+00  1.97202086E-02
  1.06396505E+00  0.00000000E+00  0.00000000E+00  0.00000000E+00  2.49040546E-01
  0.00000000E+00  0.00000000E+00  0.00000000E+00  1.86742328E+00  0.00000000E+00
  0.00000000E+00  0.00000000E+00  0.00000000E+00  0.00000000E+00  0.00000000E+00
  1.73562547E-02  0.00000000E+00  0.00000000E+00  0.00000000E+00 -2.49040546E-01
  0.00000000E+00  0.00000000E+00  0.00000000E+00 -1.86742328E+00  0.00000000E+00
  0.00000000E+00  0.00000000E+00  0.00000000E+00  0.00000000E+00  0.00000000E+00
  1.73562547E-02  3.92236902E-02 -1.60976978E+00 -3.92236902E-02  1.60976978E+00
 -3.92236902E-02  1.60976978E+00  3.92236902E-02 -1.60976978E+00 -6.74703517E-02
  4.19022965E-03  0.00000000E+00  0.00000000E+00 -1.36114270E-01  2.98535673E+00
  0.00000000E+00  0.00000000E+00 -2.91204023E+00 -1.14864421E-02  2.36938071E-02
  8.28675550E-04  0.00000000E+00  0.00000000E+00  0.00000000E+00  6.74703517E-02
 -4.19022965E-03  0.00000000E+00  0.00000000E+00 -1.36114270E-01 -2.98535673E+00
  0.00000000E+00  0.00000000E+00 -2.91204023E+00  1.14864421E-02 -2.36938071E-02
 -8.28675550E-04  0.00000000E+00  0.00000000E+00  0.00000000E+00  8.06356889E-02
  5.57862421E-01  8.06356889E-02  5.57862421E-01 -8.06356889E-02 -5.57862421E-01
 -8.06356889E-02 -5.57862421E-01  2.20568896E-02  1.98844504E-01  0.00000000E+00
  0.00000000E+00 -5.56053479E-01  1.99225412E-01  0.00000000E+00  0.00000000E+00
  1.02353137E+00  3.02721306E-04 -3.51429050E-02  7.89343651E-02  0.00000000E+00
  0.00000000E+00  0.00000000E+00  2.20568896E-02  1.98844504E-01  0.00000000E+00
  0.00000000E+00  5.56053479E-01  1.99225412E-01  0.00000000E+00  0.00000000E+00
 -1.02353137E+00  3.02721306E-04 -3.51429050E-02  7.89343651E-02  0.00000000E+00
  0.00000000E+00  0.00000000E+00 -1.01409256E-01 -5.38183776E-02 -1.01409256E-01
 -5.38183776E-02 -1.01409256E-01 -5.38183776E-02 -1.01409256E-01 -5.38183776E-02
  0.00000000E+00  0.00000000E+00  0.00000000E+00 -4.00674092E-01  0.00000000E+00
  0.00000000E+00  0.00000000E+00  7.72277891E-01  0.00000000E+00  0.00000000E+00
  0.00000000E+00  0.00000000E+00  0.00000000E+00  0.00000000E+00 -9.52352944E-02
  0.00000000E+00  0.00000000E+00  0.00000000E+00 -4.00674092E-01  0.00000000E+00
  0.00000000E+00  0.00000000E+00  7.72277891E-01  0.00000000E+00  0.00000000E+00
  0.00000000E+00  0.00000000E+00  0.00000000E+00  0.00000000E+00  9.52352944E-02
 -3.89602483E-01 -6.35057651E-02  3.89602483E-01  6.35057651E-02 -3.89602483E-01
 -6.35057651E-02  3.89602483E-01  6.35057651E-02  0.00000000E+00  0.00000000E+00
  7.40742172E-01  0.00000000E+00  0.00000000E+00  0.00000000E+00 -6.39710923E-01
  0.00000000E+00  0.00000000E+00  0.00000000E+00  0.00000000E+00  0.00000000E+00
  0.00000000E+00 -6.83661408E-02  0.00000000E+00  0.00000000E+00  0.00000000E+00
  7.40742172E-01  0.00000000E+00  0.00000000E+00  0.00000000E+00 -6.39710923E-01
  0.00000000E+00  0.00000000E+00  0.00000000E+00  0.00000000E+00  0.00000000E+00
  0.00000000E+00  6.83661408E-02  0.00000000E+00  0.00000000E+00  0.00000000E+00
  0.00000000E+00  0.00000000E+00  0.00000000E+00  0.00000000E+00  0.00000000E+00
  0.00000000E+00 -4.10342133E-02 -7.85030339E-01  0.00000000E+00  0.00000000E+00
  2.59335588E-02  1.50325624E+00  0.00000000E+00  0.00000000E+00  3.34128041E-01
  4.08648586E-02 -1.55634971E-01 -9.50503349E-02  0.00000000E+00  0.00000000E+00
  0.00000000E+00 -4.10342133E-02 -7.85030339E-01  0.00000000E+00  0.00000000E+00
 -2.59335588E-02  1.50325624E+00  0.00000000E+00  0.00000000E+00 -3.34128041E-01
  4.08648586E-02 -1.55634971E-01 -9.50503349E-02  0.00000000E+00  0.00000000E+00
  0.00000000E+00 -3.83439350E-01 -2.36479974E-01 -3.83439350E-01 -2.36479974E-01
 -3.83439350E-01 -2.36479974E-01 -3.83439350E-01 -2.36479974E-01  0.00000000E+00
  0.00000000E+00 -8.18255151E-01  0.00000000E+00  0.00000000E+00  0.00000000E+00
  1.07351565E+00  0.00000000E+00  0.00000000E+00  0.00000000E+00  0.00000000E+00
  0.00000000E+00  0.00000000E+00 -3.16539530E-02  0.00000000E+00  0.00000000E+00
  0.00000000E+00  8.18255151E-01  0.00000000E+00  0.00000000E+00  0.00000000E+00
 -1.07351565E+00  0.00000000E+00  0.00000000E+00  0.00000000E+00  0.00000000E+00
  0.00000000E+00  0.00000000E+00 -3.16539530E-02  0.00000000E+00  0.00000000E+00
  0.00000000E+00  0.00000000E+00  0.00000000E+00  0.00000000E+00  0.00000000E+00
  0.00000000E+00  0.00000000E+00 -9.54013951E-02 -6.03438554E-02  0.00000000E+00
  0.00000000E+00 -5.98018080E-01  9.92689057E-01  0.00000000E+00  0.00000000E+00
  4.06044590E-01  9.08443012E-02 -5.10293396E-02 -1.76441567E-01  0.00000000E+00
  0.00000000E+00  0.00000000E+00  9.54013951E-02  6.03438554E-02  0.00000000E+00
  0.00000000E+00 -5.98018080E-01 -9.92689057E-01  0.00000000E+00  0.00000000E+00
  4.06044590E-01 -9.08443012E-02  5.10293396E-02  1.76441567E-01  0.00000000E+00
  0.00000000E+00  0.00000000E+00 -3.78965834E-01 -8.54136938E-02 -3.78965834E-01
 -8.54136938E-02  3.78965834E-01  8.54136938E-02  3.78965834E-01  8.54136938E-02
  0.00000000E+00  0.00000000E+00  0.00000000E+00 -6.91002312E-01  0.00000000E+00
  0.00000000E+00  0.00000000E+00  1.10275677E+00  0.00000000E+00  0.00000000E+00
  0.00000000E+00  0.00000000E+00  0.00000000E+00  0.00000000E+00  1.85838898E-01
  0.00000000E+00  0.00000000E+00  0.00000000E+00 -6.91002312E-01  0.00000000E+00
  0.00000000E+00  0.00000000E+00  1.10275677E+00  0.00000000E+00  0.00000000E+00
  0.00000000E+00  0.00000000E+00  0.00000000E+00  0.00000000E+00 -1.85838898E-01
  3.81295627E-01 -1.05524832E+00 -3.81295627E-01  1.05524832E+00  3.81295627E-01
 -1.05524832E+00 -3.81295627E-01  1.05524832E+00  0.00000000E+00  0.00000000E+00
  0.00000000E+00 -9.23297620E-01  0.00000000E+00  0.00000000E+00  0.00000000E+00
  2.86063596E+00  0.00000000E+00  0.00000000E+00  0.00000000E+00  0.00000000E+00
  0.00000000E+00  0.00000000E+00 -3.70382018E-03  0.00000000E+00  0.00000000E+00
  0.00000000E+00  9.23297620E-01  0.00000000E+00  0.00000000E+00  0.00000000E+00
 -2.86063596E+00  0.00000000E+00  0.00000000E+00  0.00000000E+00  0.00000000E+00
  0.00000000E+00  0.00000000E+00 -3.70382018E-03  1.66261668E-01 -1.47272633E+00
 -1.66261668E-01  1.47272633E+00 -1.66261668E-01  1.47272633E+00  1.66261668E-01
 -1.47272633E+00  1.78575312E-02 -9.30801862E-01  0.00000000E+00  0.00000000E+00
 -3.64993938E-01  1.73454470E+00  0.00000000E+00  0.00000000E+00  4.87816728E-01
 -1.13935771E-01  5.67188242E-02 -1.03503170E-01  0.00000000E+00  0.00000000E+00
  0.00000000E+00  1.78575312E-02 -9.30801862E-01  0.00000000E+00  0.00000000E+00
  3.64993938E-01  1.73454470E+00  0.00000000E+00  0.00000000E+00 -4.87816728E-01
 -1.13935771E-01  5.67188242E-02 -1.03503170E-01  0.00000000E+00  0.00000000E+00
  0.00000000E+00  4.48944407E-01 -8.70270679E-01  4.48944407E-01 -8.70270679E-01
  4.48944407E-01 -8.70270679E-01  4.48944407E-01 -8.70270679E-01  1.94667746E-02
 -5.21955290E-01  0.00000000E+00  0.00000000E+00 -5.95045010E-01  7.67225188E-01
  0.00000000E+00  0.00000000E+00  1.13652890E+00 -9.75206411E-02  1.00428208E-01
 -1.38925442E-01  0.00000000E+00  0.00000000E+00  0.00000000E+00 -1.94667746E-02
  5.21955290E-01  0.00000000E+00  0.00000000E+00 -5.95045010E-01 -7.67225188E-01
  0.00000000E+00  0.00000000E+00  1.13652890E+00  9.75206411E-02 -1.00428208E-01
  1.38925442E-01  0.00000000E+00  0.00000000E+00  0.00000000E+00  4.68011617E-01
 -9.89498890E-01  4.68011617E-01 -9.89498890E-01 -4.68011617E-01  9.89498890E-01
 -4.68011617E-01  9.89498890E-01 -3.19994544E-02 -1.46808183E+00  0.00000000E+00
  0.00000000E+00  3.10062262E-01  5.45432048E+00  0.00000000E+00  0.00000000E+00
 -1.99679203E+00 -5.83205479E-02 -2.04417672E-01  4.60440718E-02  0.00000000E+00
  0.00000000E+00  0.00000000E+00  3.19994544E-02  1.46808183E+00  0.00000000E+00
  0.00000000E+00  3.10062262E-01 -5.45432048E+00  0.00000000E+00  0.00000000E+00
 -1.99679203E+00  5.83205479E-02  2.04417672E-01 -4.60440718E-02  0.00000000E+00
  0.00000000E+00  0.00000000E+00 -1.30924400E-01 -3.00647139E-01 -1.30924400E-01
 -3.00647139E-01  1.30924400E-01  3.00647139E-01  1.30924400E-01  3.00647139E-01
  0.00000000E+00  0.00000000E+00  0.00000000E+00 -6.05638176E-02  0.00000000E+00
  0.00000000E+00  0.00000000E+00  2.61654544E+00  0.00000000E+00  0.00000000E+00
  0.00000000E+00  0.00000000E+00  0.00000000E+00  0.00000000E+00 -1.65975708E-01
  0.00000000E+00  0.00000000E+00  0.00000000E+00  6.05638176E-02  0.00000000E+00
  0.00000000E+00  0.00000000E+00 -2.61654544E+00  0.00000000E+00  0.00000000E+00
  0.00000000E+00  0.00000000E+00  0.00000000E+00  0.00000000E+00 -1.65975708E-01
 -6.97366148E-01 -6.95045381E-01  6.97366148E-01  6.95045381E-01  6.97366148E-01
  6.95045381E-01 -6.97366148E-01 -6.95045381E-01  0.00000000E+00  0.00000000E+00
  1.89372589E-01  0.00000000E+00  0.00000000E+00  0.00000000E+00 -4.15086435E-02
  0.00000000E+00  0.00000000E+00  0.00000000E+00  0.00000000E+00  0.00000000E+00
  0.00000000E+00  6.19251976E-01  0.00000000E+00  0.00000000E+00  0.00000000E+00
  1.89372589E-01  0.00000000E+00  0.00000000E+00  0.00000000E+00 -4.15086435E-02
  0.00000000E+00  0.00000000E+00  0.00000000E+00  0.00000000E+00  0.00000000E+00
  0.00000000E+00 -6.19251976E-01  0.00000000E+00  0.00000000E+00  0.00000000E+00
  0.00000000E+00  0.00000000E+00  0.00000000E+00  0.00000000E+00  0.00000000E+00
  0.00000000E+00  0.00000000E+00  0.00000000E+00  0.00000000E+00  0.00000000E+00
  0.00000000E+00  0.00000000E+00  0.00000000E+00  0.00000000E+00  0.00000000E+00
  0.00000000E+00  0.00000000E+00  0.00000000E+00  6.81372006E-01  0.00000000E+00
  0.00000000E+00  0.00000000E+00  0.00000000E+00  0.00000000E+00  0.00000000E+00
  0.00000000E+00  0.00000000E+00  0.00000000E+00  0.00000000E+00  0.00000000E+00
  0.00000000E+00  0.00000000E+00  0.00000000E+00  6.81372006E-01  0.00000000E+00
  0.00000000E+00  0.00000000E+00  0.00000000E+00  0.00000000E+00  0.00000000E+00
  0.00000000E+00  0.00000000E+00  0.00000000E+00  0.00000000E+00  0.00000000E+00
  0.00000000E+00  0.00000000E+00  0.00000000E+00  0.00000000E+00  0.00000000E+00
  0.00000000E+00  0.00000000E+00  0.00000000E+00  0.00000000E+00  0.00000000E+00
  0.00000000E+00  7.35996629E-01  0.00000000E+00  0.00000000E+00  0.00000000E+00
  0.00000000E+00  0.00000000E+00  0.00000000E+00  0.00000000E+00  0.00000000E+00
  0.00000000E+00  0.00000000E+00  0.00000000E+00  0.00000000E+00  0.00000000E+00
  0.00000000E+00 -7.35996629E-01  0.00000000E+00  0.00000000E+00  0.00000000E+00
  0.00000000E+00  0.00000000E+00  0.00000000E+00  0.00000000E+00  0.00000000E+00
  0.00000000E+00  0.00000000E+00  3.53827188E-02  1.73359433E-01  0.00000000E+00
  0.00000000E+00 -1.05531498E-01 -6.11338530E-01  0.00000000E+00  0.00000000E+00
 -1.79957629E-01  7.18809244E-01 -5.08312093E-01 -1.21007854E-01  0.00000000E+00
  0.00000000E+00  0.00000000E+00  3.53827188E-02  1.73359433E-01  0.00000000E+00
  0.00000000E+00  1.05531498E-01 -6.11338530E-01  0.00000000E+00  0.00000000E+00
  1.79957629E-01  7.18809244E-01 -5.08312093E-01 -1.21007854E-01  0.00000000E+00
  0.00000000E+00  0.00000000E+00  3.59873319E-01  1.05954400E-01  3.59873319E-01
  1.05954400E-01  3.59873319E-01  1.05954400E-01  3.59873319E-01  1.05954400E-01
  0.00000000E+00  0.00000000E+00  0.00000000E+00  2.63882805E-01  0.00000000E+00
  0.00000000E+00  0.00000000E+00  2.09803287E-01  0.00000000E+00  0.00000000E+00
  0.00000000E+00  0.00000000E+00  0.00000000E+00  0.00000000E+00  6.88408366E-01
  0.00000000E+00  0.00000000E+00  0.00000000E+00  2.63882805E-01  0.00000000E+00
  0.00000000E+00  0.00000000E+00  2.09803287E-01  0.00000000E+00  0.00000000E+00
  0.00000000E+00  0.00000000E+00  0.00000000E+00  0.00000000E+00 -6.88408366E-01
 -5.09245386E-01  8.33411025E-02  5.09245386E-01 -8.33411025E-02 -5.09245386E-01
  8.33411025E-02  5.09245386E-01 -8.33411025E-02 -2.48368620E-02 -3.45794933E-01
  0.00000000E+00  0.00000000E+00  2.75919384E-01  1.97611400E-01  0.00000000E+00
  0.00000000E+00 -4.42326481E-01 -2.76960539E-01 -5.80747215E-01  6.06816995E-01
  0.00000000E+00  0.00000000E+00  0.00000000E+00 -2.48368620E-02 -3.45794933E-01
  0.00000000E+00  0.00000000E+00 -2.75919384E-01  1.97611400E-01  0.00000000E+00
  0.00000000E+00  4.42326481E-01 -2.76960539E-01 -5.80747215E-01  6.06816995E-01
  0.00000000E+00  0.00000000E+00  0.00000000E+00  1.76729112E-01 -4.90618556E-02
  1.76729112E-01 -4.90618556E-02  1.76729112E-01 -4.90618556E-02  1.76729112E-01
 -4.90618556E-02 -4.53181014E-02 -2.62411885E-01  0.00000000E+00  0.00000000E+00
  9.15682156E-02  1.40143266E+00  0.00000000E+00  0.00000000E+00 -3.08044992E-01
 -7.13782944E-01  6.66940959E-01 -2.25243750E-02  0.00000000E+00  0.00000000E+00
  0.00000000E+00  4.53181014E-02  2.62411885E-01  0.00000000E+00  0.00000000E+00
  9.15682156E-02 -1.40143266E+00  0.00000000E+00  0.00000000E+00 -3.08044992E-01
  7.13782944E-01 -6.66940959E-01  2.25243750E-02  0.00000000E+00  0.00000000E+00
  0.00000000E+00 -4.37855745E-01 -1.66929056E-03 -4.37855745E-01 -1.66929056E-03
  4.37855745E-01  1.66929056E-03  4.37855745E-01  1.66929056E-03  0.00000000E+00
  0.00000000E+00 -1.24106077E-01  0.00000000E+00  0.00000000E+00  0.00000000E+00
 -2.64143573E-01  0.00000000E+00  0.00000000E+00  0.00000000E+00  0.00000000E+00
  0.00000000E+00  0.00000000E+00  9.01676204E-01  0.00000000E+00  0.00000000E+00
  0.00000000E+00  1.24106077E-01  0.00000000E+00  0.00000000E+00  0.00000000E+00
  2.64143573E-01  0.00000000E+00  0.00000000E+00  0.00000000E+00  0.00000000E+00
  0.00000000E+00  0.00000000E+00  9.01676204E-01  0.00000000E+00  0.00000000E+00
  0.00000000E+00  0.00000000E+00  0.00000000E+00  0.00000000E+00  0.00000000E+00
  0.00000000E+00  0.00000000E+00  0.00000000E+00  0.00000000E+00  0.00000000E+00
 -7.38629144E-02  0.00000000E+00  0.00000000E+00  0.00000000E+00  5.43824142E-01
  0.00000000E+00  0.00000000E+00  0.00000000E+00  0.00000000E+00  0.00000000E+00
  0.00000000E+00  9.62568573E-01  0.00000000E+00  0.00000000E+00  0.00000000E+00
  7.38629144E-02  0.00000000E+00  0.00000000E+00  0.00000000E+00 -5.43824142E-01
  0.00000000E+00  0.00000000E+00  0.00000000E+00  0.00000000E+00  0.00000000E+00
  0.00000000E+00  9.62568573E-01 -4.63356488E-01 -3.92505562E-02  4.63356488E-01