Water B3LYP/aug-cc-pVTZ                                                 
FOpt      RB3LYP                                                      Aug-CC-pVTZ         
Number of atoms                            I                3
Charge                                     I                0
Multiplicity                               I                1
Number of electrons                        I               10
Number of alpha electrons                  I                5
Number of beta electrons                   I                5
Number of basis functions                  I               92
Number of independant functions            I               92
Number of point charges in /Mol/           I                0
Number of translation vectors              I                0
Info1-9                                    I   N=           9
          10          10           0           0           0         110
           2          18        -501
Num ILSW                                   I              100
ILSW                                       I   N=         100
           0           0           0           0           2           0
           0           0           0           0         402      200000
           0           0           0           0           0           0
           0      800000           1           0           1           0
           1           0           0           0     1000000           0
           0           0           0           0          -1           0
           0           0           0           0           0           0
           0           0           0           1           0           0
           0           0           1      720000      810000           0
           0           0           0           0           0           0
           0           0           0           0           0           0
           0           0           0           0           0           0
           0           0           0           0           0           0
           0           0           0           0           0           0
           0           0           0           0           0           0
           0           0           0           0           0           0
           0           0           0           0
Number of contracted shells                I               32
Highest angular momentum                   I                3
Largest degree of contraction              I                7
Number of primitive shells                 I               50
Pure/Cartesian d shells                    I                0
Pure/Cartesian f shells                    I                0
Virial Ratio                               R      2.005968345936809E+00
SCF Energy                                 R     -7.646619665246206E+01
Total Energy                               R     -7.646619665246206E+01
RMS Force                                  R      1.725228715047756E-05
RMS Density                                R      8.775323183728679E-10
Atomic numbers                             I   N=           3
           8           1           1
Nuclear charges                            R   N=           3
  8.00000000E+00  1.00000000E+00  1.00000000E+00
Current cartesian coordinates              R   N=           9
  2.46519033E-32  0.00000000E+00  2.21063517E-01  6.40949485E-31  1.44291172E+00
 -8.84254066E-01 -1.76705722E-16 -1.44291172E+00 -8.84254066E-01
Int Atom Types                             I   N=           3
           0           0           0
Force Field                                I                0
MM charges                                 R   N=           3
  0.00000000E+00  0.00000000E+00  0.00000000E+00
Integer atomic weights                     I   N=           3
          16           1           1
Real atomic weights                        R   N=           3
  1.59949146E+01  1.00782504E+00  1.00782504E+00
Atom residue info                          I   N=           3
           0           0           0
Atom fragment info                         I   N=           3
           0           0           0
Atom residue num                           I   N=           3
           0           0           0
Nuclear spins                              I   N=           3
           0           1           1
Nuclear ZEff                               R   N=           3
 -5.60000000E+00 -1.00000000E+00 -1.00000000E+00
Nuclear QMom                               R   N=           3
  0.00000000E+00  0.00000000E+00  0.00000000E+00
Nuclear GFac                               R   N=           3
  0.00000000E+00  2.79284600E+00  2.79284600E+00
MicOpt                                     I   N=           3
          -1          -1          -1
Constraint Structure                       R   N=           9
  1.54074396E-33  3.08148791E-33  2.19453896E-01 -1.23259516E-31  1.43517141E+00
 -8.77815584E-01 -1.75757807E-16 -1.43517141E+00 -8.77815584E-01
ONIOM Charges                              I   N=          16
           0           0           0           0           0           0
           0           0           0           0           0           0
           0           0           0           0
ONIOM Multiplicities                       I   N=          16
           1           0           0           0           0           0
           0           0           0           0           0           0
           0           0           0           0
Atom Layers                                I   N=           3
           1           1           1
Atom Modifiers                             I   N=           3
           0           0           0
Int Atom Modified Types                    I   N=           3
           0           0           0
Link Atoms                                 I   N=           3
           0           0           0
Atom Modified MM Charges                   R   N=           3
  0.00000000E+00  0.00000000E+00  0.00000000E+00
Link Distances                             R   N=          12
  0.00000000E+00  0.00000000E+00  0.00000000E+00  0.00000000E+00  0.00000000E+00
  0.00000000E+00  0.00000000E+00  0.00000000E+00  0.00000000E+00  0.00000000E+00
  0.00000000E+00  0.00000000E+00
MxBond                                     I                2
NBond                                      I   N=           3
           2           1           1
IBond                                      I   N=           6
           2           3           1           0           1           0
RBond                                      R   N=           6
  1.00000000E+00  1.00000000E+00  1.00000000E+00  0.00000000E+00  1.00000000E+00
  0.00000000E+00
Shell types                                I   N=          32
           0           0           0           0           1           1
           1          -2          -2          -3           0           1
          -2          -3           0           0           0           1
           1          -2           0           1          -2           0
           0           0           1           1          -2           0
           1          -2
Number of primitives per shell             I   N=          32
           7           7           1           1           3           1
           1           1           1           1           1           1
           1           1           3           1           1           1
           1           1           1           1           1           3
           1           1           1           1           1           1
           1           1
Shell to atom map                          I   N=          32
           1           1           1           1           1           1
           1           1           1           1           1           1
           1           1           2           2           2           2
           2           2           2           2           2           3
           3           3           3           3           3           3
           3           3
Primitive exponents                        R   N=          50
  1.53300000E+04  2.29900000E+03  5.22400000E+02  1.47300000E+02  4.75500000E+01
  1.67600000E+01  6.20700000E+00  1.53300000E+04  2.29900000E+03  5.22400000E+02
  4.75500000E+01  1.67600000E+01  6.20700000E+00  6.88200000E-01  1.75200000E+00
  2.38400000E-01  3.44600000E+01  7.74900000E+00  2.28000000E+00  7.15600000E-01
  2.14000000E-01  2.31400000E+00  6.45000000E-01  1.42800000E+00  7.37600000E-02
  5.97400000E-02  2.14000000E-01  5.00000000E-01  3.38700000E+01  5.09500000E+00
  1.15900000E+00  3.25800000E-01  1.02700000E-01  1.40700000E+00  3.88000000E-01
  1.05700000E+00  2.52600000E-02  1.02000000E-01  2.47000000E-01  3.38700000E+01
  5.09500000E+00  1.15900000E+00  3.25800000E-01  1.02700000E-01  1.40700000E+00
  3.88000000E-01  1.05700000E+00  2.52600000E-02  1.02000000E-01  2.47000000E-01
Contraction coefficients                   R   N=          50
  5.19808943E-04  4.02025621E-03  2.07128267E-02  8.10105536E-02  2.35962985E-01
  4.42653446E-01  3.57064423E-01  9.13376623E-06  6.07362596E-05  2.68782282E-04
 -6.96940030E-03 -6.06456900E-02 -1.65519536E-01  1.07151369E+00  1.00000000E+00
  1.00000000E+00  4.11634896E-02  2.57762836E-01  8.02419274E-01  1.00000000E+00
  1.00000000E+00  1.00000000E+00  1.00000000E+00  1.00000000E+00  1.00000000E+00
  1.00000000E+00  1.00000000E+00  1.00000000E+00  2.54948632E-02  1.90362766E-01
  8.52162022E-01  1.00000000E+00  1.00000000E+00  1.00000000E+00  1.00000000E+00
  1.00000000E+00  1.00000000E+00  1.00000000E+00  1.00000000E+00  2.54948632E-02
  1.90362766E-01  8.52162022E-01  1.00000000E+00  1.00000000E+00  1.00000000E+00
  1.00000000E+00  1.00000000E+00  1.00000000E+00  1.00000000E+00  1.00000000E+00
Coordinates of each shell                  R   N=          96
  2.46519033E-32  0.00000000E+00  2.21063517E-01  2.46519033E-32  0.00000000E+00
  2.21063517E-01  2.46519033E-32  0.00000000E+00  2.21063517E-01  2.46519033E-32
  0.00000000E+00  2.21063517E-01  2.46519033E-32  0.00000000E+00  2.21063517E-01
  2.46519033E-32  0.00000000E+00  2.21063517E-01  2.46519033E-32  0.00000000E+00
  2.21063517E-01  2.46519033E-32  0.00000000E+00  2.21063517E-01  2.46519033E-32
  0.00000000E+00  2.21063517E-01  2.46519033E-32  0.00000000E+00  2.21063517E-01
  2.46519033E-32  0.00000000E+00  2.21063517E-01  2.46519033E-32  0.00000000E+00
  2.21063517E-01  2.46519033E-32  0.00000000E+00  2.21063517E-01  2.46519033E-32
  0.00000000E+00  2.21063517E-01  6.40949485E-31  1.44291172E+00 -8.84254066E-01
  6.40949485E-31  1.44291172E+00 -8.84254066E-01  6.40949485E-31  1.44291172E+00
 -8.84254066E-01  6.40949485E-31  1.44291172E+00 -8.84254066E-01  6.40949485E-31
  1.44291172E+00 -8.84254066E-01  6.40949485E-31  1.44291172E+00 -8.84254066E-01
  6.40949485E-31  1.44291172E+00 -8.84254066E-01  6.40949485E-31  1.44291172E+00
 -8.84254066E-01  6.40949485E-31  1.44291172E+00 -8.84254066E-01 -1.76705722E-16
 -1.44291172E+00 -8.84254066E-01 -1.76705722E-16 -1.44291172E+00 -8.84254066E-01
 -1.76705722E-16 -1.44291172E+00 -8.84254066E-01 -1.76705722E-16 -1.44291172E+00
 -8.84254066E-01 -1.76705722E-16 -1.44291172E+00 -8.84254066E-01 -1.76705722E-16
 -1.44291172E+00 -8.84254066E-01 -1.76705722E-16 -1.44291172E+00 -8.84254066E-01
 -1.76705722E-16 -1.44291172E+00 -8.84254066E-01 -1.76705722E-16 -1.44291172E+00
 -8.84254066E-01
Alpha Orbital Energies                     R   N=          92
 -1.91404493E+01 -1.02108561E+00 -5.40695974E-01 -3.98954514E-01 -3.24123531E-01
 -2.50624840E-02  1.91885352E-02  7.56918118E-02  9.53855652E-02  1.02627603E-01
  1.14828369E-01  1.50891885E-01  1.70087354E-01  1.91377863E-01  2.19951705E-01
  2.24211040E-01  3.07045775E-01  3.29981471E-01  3.47707547E-01  4.71532947E-01
  5.19749742E-01  5.69745238E-01  5.90604984E-01  5.90822882E-01  6.80203088E-01
  7.09118096E-01  7.28823237E-01  7.61471106E-01  7.62949667E-01  7.85745925E-01
  8.06196436E-01  8.16957525E-01  8.77884646E-01  8.85826982E-01  9.11896730E-01
  9.83096591E-01  1.03639425E+00  1.04463600E+00  1.10406807E+00  1.32603261E+00
  1.35881570E+00  1.38824320E+00  1.57179366E+00  1.61345152E+00  1.74021650E+00
  1.85943146E+00  1.99078809E+00  2.04695006E+00  2.06120695E+00  2.12721653E+00
  2.16380046E+00  2.17398004E+00  2.21221380E+00  2.41934580E+00  2.43208189E+00
  2.48280638E+00  2.57100606E+00  2.61323875E+00  3.31473730E+00  3.41290524E+00
  3.64782204E+00  3.71445491E+00  3.87744329E+00  3.94296528E+00  3.99530642E+00
  4.06793071E+00  4.08168537E+00  4.08398565E+00  4.15349957E+00  4.30057812E+00
  4.44324210E+00  4.80245841E+00  4.80934742E+00  4.89560748E+00  4.92186510E+00
  5.11163605E+00  5.28134456E+00  5.71703789E+00  6.05675724E+00  6.24394349E+00
  6.41963933E+00  6.64966585E+00  6.73309101E+00  6.79052771E+00  6.82324415E+00
  6.83763422E+00  6.84128017E+00  7.02981324E+00  7.39594623E+00  7.40836846E+00
  8.26013852E+00  1.49094531E+01
Alpha MO coefficients                      R   N=        8464
  9.73458843E-01 -8.89275608E-03  5.11216913E-02  7.41522561E-03  0.00000000E+00
  0.00000000E+00 -1.48518592E-03  0.00000000E+00  0.00000000E+00 -8.24779109E-04
  0.00000000E+00  0.00000000E+00 -6.98453577E-04  2.20762191E-05  0.00000000E+00
  0.00000000E+00 -4.28637139E-04  0.00000000E+00  1.19051946E-04  0.00000000E+00
  0.00000000E+00  1.62583188E-04  0.00000000E+00  1.61393357E-04  0.00000000E+00
  0.00000000E+00  3.37186534E-04  0.00000000E+00  0.00000000E+00  0.00000000E+00
  1.93941868E-03  0.00000000E+00  0.00000000E+00 -1.78461467E-04  7.40313123E-05
  0.00000000E+00  0.00000000E+00  4.03690810E-04  0.00000000E+00 -4.63088288E-04
  0.00000000E+00  0.00000000E+00 -8.27799573E-04  0.00000000E+00  0.00000000E+00
  0.00000000E+00  8.11539478E-04 -1.92444221E-03 -2.10197249E-03  0.00000000E+00
  1.79849703E-04 -5.36994634E-05  0.00000000E+00  1.50126795E-03 -9.35608785E-04
 -3.52629277E-05  0.00000000E+00  8.73306607E-04  6.05726825E-04  0.00000000E+00
 -5.10023105E-05  0.00000000E+00  6.71685451E-04 -5.60966407E-04 -1.27426662E-05
  0.00000000E+00  2.09834143E-04  1.06177012E-04  0.00000000E+00  8.11539478E-04
 -1.92444221E-03 -2.10197249E-03  0.00000000E+00 -1.79849703E-04 -5.36994634E-05
  0.00000000E+00 -1.50126795E-03 -9.35608785E-04 -3.52629277E-05  0.00000000E+00
 -8.73306607E-04  6.05726825E-04  0.00000000E+00 -5.10023105E-05  0.00000000E+00
 -6.71685451E-04 -5.60966407E-04 -1.27426662E-05  0.00000000E+00 -2.09834143E-04
  1.06177012E-04  0.00000000E+00 -2.12650164E-01  4.70583265E-01  1.42283344E-01
  2.75711645E-01  0.00000000E+00  0.00000000E+00 -6.50957920E-02  0.00000000E+00
  0.00000000E+00 -7.76170595E-02  0.00000000E+00  0.00000000E+00 -2.16003167E-02
  1.20776688E-03  0.00000000E+00  0.00000000E+00 -4.05742449E-03  0.00000000E+00
  4.25075875E-03  0.00000000E+00  0.00000000E+00 -7.36831532E-03  0.00000000E+00
  5.08579860E-04  0.00000000E+00  0.00000000E+00  1.84754093E-03  0.00000000E+00
  0.00000000E+00  0.00000000E+00  3.14042590E-02  0.00000000E+00  0.00000000E+00
 -2.29025189E-03  1.48224551E-03  0.00000000E+00  0.00000000E+00  2.72599980E-03
  0.00000000E+00 -1.33435879E-03  0.00000000E+00  0.00000000E+00 -6.93538697E-04
  0.00000000E+00  0.00000000E+00  0.00000000E+00  9.54618272E-02  8.03435596E-02
 -8.70754388E-03  0.00000000E+00 -1.14266605E-02  7.65419027E-03  0.00000000E+00
 -8.76731218E-03  6.17724107E-03  1.28702863E-04  0.00000000E+00 -2.89444000E-03
 -1.88602994E-03  0.00000000E+00 -1.40041952E-03  0.00000000E+00  4.29886839E-03
 -3.28728420E-03  8.66311977E-05  0.00000000E+00  9.27907890E-04  5.30170587E-04
  0.00000000E+00  9.54618272E-02  8.03435596E-02 -8.70754388E-03  0.00000000E+00
  1.14266605E-02  7.65419027E-03  0.00000000E+00  8.76731218E-03  6.17724107E-03
  1.28702863E-04  0.00000000E+00  2.89444000E-03 -1.88602994E-03  0.00000000E+00
 -1.40041952E-03  0.00000000E+00 -4.29886839E-03 -3.28728420E-03  8.66311977E-05
  0.00000000E+00 -9.27907890E-04  5.30170587E-04  0.00000000E+00  0.00000000E+00
  0.00000000E+00  0.00000000E+00  0.00000000E+00  0.00000000E+00  3.00338790E-01
  0.00000000E+00  0.00000000E+00  3.24358924E-01  0.00000000E+00  0.00000000E+00
  1.37742995E-01  0.00000000E+00  0.00000000E+00  0.00000000E+00 -1.11359456E-02
  0.00000000E+00  0.00000000E+00  0.00000000E+00  0.00000000E+00 -1.35255571E-02
  0.00000000E+00  0.00000000E+00  0.00000000E+00  0.00000000E+00 -7.13907128E-04
  0.00000000E+00  0.00000000E+00  0.00000000E+00 -2.10841024E-03  0.00000000E+00
  0.00000000E+00  6.70284567E-03  0.00000000E+00  0.00000000E+00  0.00000000E+00
  5.45040633E-03  0.00000000E+00  0.00000000E+00  0.00000000E+00  0.00000000E+00
  6.44615191E-04  0.00000000E+00  0.00000000E+00  0.00000000E+00 -9.99640148E-04
  1.48293771E-01  2.27686761E-01  6.50984657E-02  0.00000000E+00 -9.71434777E-03
  1.28153153E-02  0.00000000E+00 -1.77390989E-02  2.56833716E-02  1.92934622E-03
  0.00000000E+00 -6.81896919E-03 -3.47016081E-03  0.00000000E+00 -2.60590509E-03
  0.00000000E+00  3.29817217E-03  2.36879081E-03  1.44500207E-03  0.00000000E+00
 -2.39933189E-03  3.73652085E-04  0.00000000E+00 -1.48293771E-01 -2.27686761E-01
 -6.50984657E-02  0.00000000E+00 -9.71434777E-03 -1.28153153E-02  0.00000000E+00
 -1.77390989E-02 -2.56833716E-02 -1.92934622E-03  0.00000000E+00 -6.81896919E-03
  3.47016081E-03  0.00000000E+00  2.60590509E-03  0.00000000E+00  3.29817217E-03
 -2.36879081E-03 -1.44500207E-03  0.00000000E+00 -2.39933189E-03 -3.73652085E-04
  0.00000000E+00 -7.77469714E-02  1.88428459E-01  5.77786861E-02  3.42769743E-01
  0.00000000E+00  0.00000000E+00  3.22307881E-01  0.00000000E+00  0.00000000E+00
  3.63669823E-01  0.00000000E+00  0.00000000E+00  2.06799013E-01 -5.89150467E-03
  0.00000000E+00  0.00000000E+00  2.35323315E-03  0.00000000E+00 -1.57241637E-02
  0.00000000E+00  0.00000000E+00 -3.40058781E-03  0.00000000E+00  7.08772748E-04
  0.00000000E+00  0.00000000E+00 -2.06993494E-03  0.00000000E+00  0.00000000E+00
  0.00000000E+00  1.10989111E-01  0.00000000E+00  0.00000000E+00  1.98838762E-02
 -5.43716387E-03  0.00000000E+00  0.00000000E+00 -1.16583774E-02  0.00000000E+00
  1.79808886E-03  0.00000000E+00  0.00000000E+00  1.13898547E-03  0.00000000E+00
  0.00000000E+00  0.00000000E+00 -8.62817591E-02 -1.73516264E-01 -8.11924297E-02
  0.00000000E+00  9.30059999E-03  2.49110099E-03  0.00000000E+00  2.90380809E-02
  2.71081040E-03  2.13699127E-03  0.00000000E+00  1.82744311E-03  3.31606151E-03
  0.00000000E+00 -3.32877626E-03  0.00000000E+00  5.23016496E-03  1.25908895E-02
  1.09686579E-03  0.00000000E+00 -1.60730175E-03  1.99638919E-03  0.00000000E+00
 -8.62817591E-02 -1.73516264E-01 -8.11924297E-02  0.00000000E+00 -9.30059999E-03
  2.49110099E-03  0.00000000E+00 -2.90380809E-02  2.71081040E-03  2.13699127E-03
  0.00000000E+00 -1.82744311E-03  3.31606151E-03  0.00000000E+00 -3.32877626E-03
  0.00000000E+00 -5.23016496E-03  1.25908895E-02  1.09686579E-03  0.00000000E+00
  1.60730175E-03  1.99638919E-03  0.00000000E+00  0.00000000E+00  0.00000000E+00
  0.00000000E+00  0.00000000E+00  3.65598013E-01  0.00000000E+00  0.00000000E+00
  4.31139767E-01  0.00000000E+00  0.00000000E+00  3.20560706E-01  0.00000000E+00
  0.00000000E+00  0.00000000E+00 -5.92679181E-03  0.00000000E+00  0.00000000E+00
  0.00000000E+00  0.00000000E+00 -1.42811742E-02  0.00000000E+00  0.00000000E+00
  0.00000000E+00  0.00000000E+00  1.20092112E-03  0.00000000E+00  0.00000000E+00
  0.00000000E+00 -3.20613072E-03  0.00000000E+00  0.00000000E+00  5.06176162E-02
  0.00000000E+00  0.00000000E+00  0.00000000E+00 -6.51226738E-03  0.00000000E+00
  0.00000000E+00  0.00000000E+00  0.00000000E+00  7.63600572E-04  0.00000000E+00
  0.00000000E+00  0.00000000E+00 -9.53506626E-04  0.00000000E+00  0.00000000E+00
  0.00000000E+00  0.00000000E+00  1.13796782E-02  0.00000000E+00  0.00000000E+00
  3.09991688E-02  0.00000000E+00  0.00000000E+00  0.00000000E+00  2.91436513E-03
  0.00000000E+00  0.00000000E+00 -3.93832014E-03  0.00000000E+00  2.54065543E-02
  0.00000000E+00  0.00000000E+00  0.00000000E+00  3.26697387E-03  0.00000000E+00
  0.00000000E+00 -5.25936871E-03  0.00000000E+00  0.00000000E+00  0.00000000E+00
  1.13796782E-02  0.00000000E+00  0.00000000E+00  3.09991688E-02  0.00000000E+00
  0.00000000E+00  0.00000000E+00  2.91436513E-03  0.00000000E+00  0.00000000E+00
  3.93832014E-03  0.00000000E+00  2.54065543E-02  0.00000000E+00  0.00000000E+00
  0.00000000E+00  3.26697387E-03  0.00000000E+00  0.00000000E+00  5.25936871E-03
  5.01525132E-02 -1.27582564E-01 -4.21194196E-02 -3.77531624E-01  0.00000000E+00
  0.00000000E+00  8.05612355E-02  0.00000000E+00  0.00000000E+00  1.03644418E-01
  0.00000000E+00  0.00000000E+00  1.82517867E-01 -1.00614122E-03  0.00000000E+00
  0.00000000E+00 -1.14203654E-03  0.00000000E+00 -5.60998589E-03  0.00000000E+00
  0.00000000E+00  4.71708427E-03  0.00000000E+00  1.38973894E-04  0.00000000E+00
  0.00000000E+00 -2.31209031E-04  0.00000000E+00  0.00000000E+00  0.00000000E+00
 -4.88229403E-01  0.00000000E+00  0.00000000E+00 -4.80629648E-03 -5.52413716E-04
  0.00000000E+00  0.00000000E+00  1.16453217E-02  0.00000000E+00 -2.04756824E-03
  0.00000000E+00  0.00000000E+00 -5.23958506E-03  0.00000000E+00  0.00000000E+00
  0.00000000E+00  1.93019057E-02  1.18891445E-01  3.25702553E-01  0.00000000E+00
  7.41235415E-03 -3.48057117E-03  0.00000000E+00  1.05954387E-03 -2.39540847E-04
  7.73675691E-04  0.00000000E+00  5.91698130E-04  9.69807267E-04  0.00000000E+00
  5.01601951E-01  0.00000000E+00  7.16734955E-03 -6.95992519E-03  1.28702224E-03
  0.00000000E+00 -3.94333305E-03 -4.98424427E-03  0.00000000E+00  1.93019057E-02
  1.18891445E-01  3.25702553E-01  0.00000000E+00 -7.41235415E-03 -3.48057117E-03
  0.00000000E+00 -1.05954387E-03 -2.39540847E-04  7.73675691E-04  0.00000000E+00
 -5.91698130E-04  9.69807267E-04  0.00000000E+00  5.01601951E-01  0.00000000E+00
 -7.16734955E-03 -6.95992519E-03  1.28702224E-03  0.00000000E+00  3.94333305E-03
 -4.98424427E-03  0.00000000E+00  0.00000000E+00  0.00000000E+00  0.00000000E+00
  0.00000000E+00  0.00000000E+00 -8.17631175E-02  0.00000000E+00  0.00000000E+00
 -1.13986659E-01  0.00000000E+00  0.00000000E+00 -3.75287407E-01  0.00000000E+00
  0.00000000E+00  0.00000000E+00  1.15808131E-04  0.00000000E+00  0.00000000E+00
  0.00000000E+00  0.00000000E+00  1.47262258E-02  0.00000000E+00  0.00000000E+00
  0.00000000E+00  0.00000000E+00  1.23964237E-04  0.00000000E+00  0.00000000E+00
  0.00000000E+00  3.77361148E-04  0.00000000E+00  0.00000000E+00 -6.50201696E-01
  0.00000000E+00  0.00000000E+00  0.00000000E+00  8.48511643E-02  0.00000000E+00
  0.00000000E+00  0.00000000E+00  0.00000000E+00 -4.14148249E-03  0.00000000E+00
  0.00000000E+00  0.00000000E+00  5.69718983E-03  1.98925022E-03  1.66394839E-01
  8.35228240E-01  0.00000000E+00  2.98175189E-03 -4.17766064E-03  0.00000000E+00
 -2.57067804E-02  2.59363599E-02 -6.21105864E-04  0.00000000E+00 -1.49360879E-03
 -1.69282231E-03  0.00000000E+00  2.68144994E+00  0.00000000E+00 -7.10955013E-02
  1.14210921E-01  3.51024253E-03  0.00000000E+00 -1.50146028E-02 -4.50049485E-04
  0.00000000E+00 -1.98925022E-03 -1.66394839E-01 -8.35228240E-01  0.00000000E+00
  2.98175189E-03  4.17766064E-03  0.00000000E+00 -2.57067804E-02 -2.59363599E-02
  6.21105864E-04  0.00000000E+00 -1.49360879E-03  1.69282231E-03  0.00000000E+00
 -2.68144994E+00  0.00000000E+00 -7.10955013E-02 -1.14210921E-01 -3.51024253E-03
  0.00000000E+00 -1.50146028E-02  4.50049485E-04  0.00000000E+00  2.56204747E-02
 -7.96709937E-02 -3.12888638E-02  1.35684143E+00  0.00000000E+00  0.00000000E+00
  1.25632891E-01  0.00000000E+00  0.00000000E+00  7.87393567E-02  0.00000000E+00
  0.00000000E+00 -3.34221173E-01 -1.18816988E-03  0.00000000E+00  0.00000000E+00
 -8.84845279E-04  0.00000000E+00 -5.37975829E-03  0.00000000E+00  0.00000000E+00
 -3.08274559E-02  0.00000000E+00  1.93638362E-03  0.00000000E+00  0.00000000E+00
  2.64170894E-03  0.00000000E+00  0.00000000E+00  0.00000000E+00  5.57732669E+00
  0.00000000E+00  0.00000000E+00 -1.41060935E+00  3.88172348E-02  0.00000000E+00
  0.00000000E+00 -6.97124217E-02  0.00000000E+00  5.27602181E-04  0.00000000E+00
  0.00000000E+00  2.27590241E-03  0.00000000E+00  0.00000000E+00  0.00000000E+00
  2.02498972E-02 -2.34671652E-01 -2.33389608E+00  0.00000000E+00  5.75982158E-03
 -3.33438158E-03  0.00000000E+00  1.95867052E-01 -1.38178227E-01 -9.80396108E-04
  0.00000000E+00  1.08958189E-02  7.81473147E-03  0.00000000E+00 -9.48242122E-01
  0.00000000E+00  6.78094219E-01 -5.10934751E-01  9.31414508E-03  0.00000000E+00
  7.67899867E-02  5.15696739E-02  0.00000000E+00  2.02498972E-02 -2.34671652E-01
 -2.33389608E+00  0.00000000E+00 -5.75982158E-03 -3.33438158E-03  0.00000000E+00
 -1.95867052E-01 -1.38178227E-01 -9.80396108E-04  0.00000000E+00 -1.08958189E-02
  7.81473147E-03  0.00000000E+00 -9.48242122E-01  0.00000000E+00 -6.78094219E-01
 -5.10934751E-01  9.31414508E-03  0.00000000E+00 -7.67899867E-02  5.15696739E-02
  0.00000000E+00  0.00000000E+00  0.00000000E+00  0.00000000E+00  0.00000000E+00
 -1.24959273E-01  0.00000000E+00  0.00000000E+00 -1.28804349E-01  0.00000000E+00
  0.00000000E+00 -8.06567151E-02  0.00000000E+00  0.00000000E+00  0.00000000E+00
 -7.94837088E-04  0.00000000E+00  0.00000000E+00  0.00000000E+00  0.00000000E+00
  2.29626950E-02  0.00000000E+00  0.00000000E+00  0.00000000E+00  0.00000000E+00
 -1.59134116E-03  0.00000000E+00  0.00000000E+00  0.00000000E+00  3.00593163E-03
  0.00000000E+00  0.00000000E+00  1.53443068E+00  0.00000000E+00  0.00000000E+00
  0.00000000E+00 -1.32503348E-01  0.00000000E+00  0.00000000E+00  0.00000000E+00
  0.00000000E+00  4.59409699E-03  0.00000000E+00  0.00000000E+00  0.00000000E+00
 -5.31117368E-03  0.00000000E+00  0.00000000E+00  0.00000000E+00  0.00000000E+00
  4.80689497E-05  0.00000000E+00  0.00000000E+00 -1.70764396E-02  0.00000000E+00
  0.00000000E+00  0.00000000E+00  1.30566812E-03  0.00000000E+00  0.00000000E+00
 -9.09175151E-04  0.00000000E+00 -3.30920342E-01  0.00000000E+00  0.00000000E+00
  0.00000000E+00 -2.77250214E-02  0.00000000E+00  0.00000000E+00  4.48236181E-02
  0.00000000E+00  0.00000000E+00  0.00000000E+00  4.80689497E-05  0.00000000E+00
  0.00000000E+00 -1.70764396E-02  0.00000000E+00  0.00000000E+00  0.00000000E+00
  1.30566812E-03  0.00000000E+00  0.00000000E+00  9.09175151E-04  0.00000000E+00
 -3.30920342E-01  0.00000000E+00  0.00000000E+00  0.00000000E+00 -2.77250214E-02
  0.00000000E+00  0.00000000E+00 -4.48236181E-02  5.75045475E-02 -1.46436661E-01
 -6.01394974E-02  7.02736874E-01  0.00000000E+00  0.00000000E+00 -1.13111442E-02
  0.00000000E+00  0.00000000E+00 -5.79316746E-02  0.00000000E+00  0.00000000E+00
 -3.88366855E-01 -1.97291430E-03  0.00000000E+00  0.00000000E+00  3.33526159E-04
  0.00000000E+00  1.46464571E-02  0.00000000E+00  0.00000000E+00 -5.18775953E-02
  0.00000000E+00  1.17742364E-03  0.00000000E+00  0.00000000E+00  2.79934329E-03
  0.00000000E+00  0.00000000E+00  0.00000000E+00  1.66101248E+00  0.00000000E+00
  0.00000000E+00  1.19619754E+00 -6.39675131E-02  0.00000000E+00  0.00000000E+00
 -5.24972570E-02  0.00000000E+00  1.16664773E-02  0.00000000E+00  0.00000000E+00
  1.96546083E-02  0.00000000E+00  0.00000000E+00  0.00000000E+00  4.61103689E-02
 -2.65945791E-01 -2.65433711E-02  0.00000000E+00  1.10959098E-02 -6.45291670E-03
  0.00000000E+00  1.21058803E-01 -9.17671451E-02 -1.23823332E-03  0.00000000E+00
  8.61388515E-03  2.54065553E-03  0.00000000E+00 -5.58379867E-01  0.00000000E+00
  4.74677840E-01 -4.54351056E-01 -6.75632076E-03  0.00000000E+00  5.68620840E-02
  3.74762787E-02  0.00000000E+00  4.61103689E-02 -2.65945791E-01 -2.65433711E-02
  0.00000000E+00 -1.10959098E-02 -6.45291670E-03  0.00000000E+00 -1.21058803E-01
 -9.17671451E-02 -1.23823332E-03  0.00000000E+00 -8.61388515E-03  2.54065553E-03
  0.00000000E+00 -5.58379867E-01  0.00000000E+00 -4.74677840E-01 -4.54351056E-01
 -6.75632076E-03  0.00000000E+00 -5.68620840E-02  3.74762787E-02  0.00000000E+00
  0.00000000E+00  0.00000000E+00  0.00000000E+00  0.00000000E+00  0.00000000E+00
  1.66740573E-01  0.00000000E+00  0.00000000E+00  1.06329997E-01  0.00000000E+00
  0.00000000E+00 -7.61853445E-01  0.00000000E+00  0.00000000E+00  0.00000000E+00
  2.95829302E-04  0.00000000E+00  0.00000000E+00  0.00000000E+00  0.00000000E+00
  7.09208456E-02  0.00000000E+00  0.00000000E+00  0.00000000E+00  0.00000000E+00
 -4.51634906E-03  0.00000000E+00  0.00000000E+00  0.00000000E+00  5.16211666E-05
  0.00000000E+00  0.00000000E+00 -2.04439140E+00  0.00000000E+00  0.00000000E+00
  0.00000000E+00  1.53938627E-01  0.00000000E+00  0.00000000E+00  0.00000000E+00
  0.00000000E+00  3.66016112E-03  0.00000000E+00  0.00000000E+00  0.00000000E+00
  1.35875942E-02 -4.03309660E-02  3.66675906E-01  2.73614258E+00  0.00000000E+00
 -1.12808188E-02  1.02433477E-02  0.00000000E+00 -1.79899494E-01  1.94142305E-01
  2.06670730E-03  0.00000000E+00 -1.26177280E-02 -8.31670201E-03  0.00000000E+00
  3.20904907E+00  0.00000000E+00 -1.02964297E+00  1.02586162E+00  4.59387245E-02
  0.00000000E+00 -9.45785343E-02 -2.62033291E-02  0.00000000E+00  4.03309660E-02
 -3.66675906E-01 -2.73614258E+00  0.00000000E+00 -1.12808188E-02 -1.02433477E-02
  0.00000000E+00 -1.79899494E-01 -1.94142305E-01 -2.06670730E-03  0.00000000E+00
 -1.26177280E-02  8.31670201E-03  0.00000000E+00 -3.20904907E+00  0.00000000E+00
 -1.02964297E+00 -1.02586162E+00 -4.59387245E-02  0.00000000E+00 -9.45785343E-02
  2.62033291E-02  0.00000000E+00  0.00000000E+00  0.00000000E+00  0.00000000E+00
  0.00000000E+00  0.00000000E+00  2.36398283E-02  0.00000000E+00  0.00000000E+00
  4.64739226E-02  0.00000000E+00  0.00000000E+00  1.22426696E+00  0.00000000E+00
  0.00000000E+00  0.00000000E+00  7.27622561E-03  0.00000000E+00  0.00000000E+00
  0.00000000E+00  0.00000000E+00 -1.79299490E-02  0.00000000E+00  0.00000000E+00
  0.00000000E+00  0.00000000E+00 -3.95553115E-03  0.00000000E+00  0.00000000E+00
  0.00000000E+00  2.82966394E-03  0.00000000E+00  0.00000000E+00  2.92757589E+00