Formamide B3LYP/cc-pVTZ                                                 
SP        RB3LYP                                                      CC-pVTZ             
Number of atoms                            I                6
Charge                                     I                0
Multiplicity                               I                1
Number of electrons                        I               24
Number of alpha electrons                  I               12
Number of beta electrons                   I               12
Number of basis functions                  I              132
Number of independant functions            I              132
Number of point charges in /Mol/           I                0
Number of translation vectors              I                0
Info1-9                                    I   N=           9
          14          14           0           0           0         110
           1          18        -502
Num ILSW                                   I              100
ILSW                                       I   N=         100
           0           0           0           0           2           0
           0           0           0           0         402      200000
           0           0           0           0           0           0
           0      800000           1           0           0           0
           1           0           0           0     1000000           0
           0           0           0           0          -1           0
           0           0           0           0           0           0
           0           0           0           1           0           0
           0           0           1      720000      810000           0
           0           0           0           0           0           0
           0           0           0           0           0           0
           0           0           0           0           0           0
           0           0           0           0           0           0
           0           0           0           0           0           0
           0           0           0           0           0           0
           0           0           0           0           0           0
           0           0           0           0
Number of contracted shells                I               48
Highest angular momentum                   I                3
Largest degree of contraction              I                7
Number of primitive shells                 I               96
Pure/Cartesian d shells                    I                0
Pure/Cartesian f shells                    I                0
Virial Ratio                               R      2.006098213389884E+00
SCF Energy                                 R     -1.699655303777471E+02
Total Energy                               R     -1.699655303777471E+02
RMS Density                                R      3.651772623344047E-06
Atomic numbers                             I   N=           6
           6           8           7           1           1           1
Nuclear charges                            R   N=           6
  6.00000000E+00  8.00000000E+00  7.00000000E+00  1.00000000E+00  1.00000000E+00
  1.00000000E+00
Current cartesian coordinates              R   N=          18
  0.00000000E+00  7.90159927E-01 -1.21743413E-33  2.25970712E+00  4.47272043E-01
  5.50169496E-32 -1.76932659E+00 -1.06657760E+00 -4.19739451E-32 -8.55274818E-01
  2.69588597E+00 -2.52378221E-32 -1.21395689E+00 -2.88621441E+00 -2.54794304E-32
 -3.62313907E+00 -6.62764252E-01 -8.82961240E-32
Int Atom Types                             I   N=           6
           0           0           0           0           0           0
Force Field                                I                0
MM charges                                 R   N=           6
  0.00000000E+00  0.00000000E+00  0.00000000E+00  0.00000000E+00  0.00000000E+00
  0.00000000E+00
Integer atomic weights                     I   N=           6
          12          16          14           1           1           1
Real atomic weights                        R   N=           6
  1.20000000E+01  1.59949146E+01  1.40030740E+01  1.00782504E+00  1.00782504E+00
  1.00782504E+00
Atom residue info                          I   N=           6
           0           0           0           0           0           0
Atom fragment info                         I   N=           6
           0           0           0           0           0           0
Atom residue num                           I   N=           6
           0           0           0           0           0           0
Nuclear spins                              I   N=           6
           0           0           2           1           1           1
Nuclear ZEff                               R   N=           6
 -3.60000000E+00 -5.60000000E+00 -4.55000000E+00 -1.00000000E+00 -1.00000000E+00
 -1.00000000E+00
Nuclear QMom                               R   N=           6
  0.00000000E+00  0.00000000E+00  1.56000000E+00  0.00000000E+00  0.00000000E+00
  0.00000000E+00
Nuclear GFac                               R   N=           6
  0.00000000E+00  0.00000000E+00  4.03761000E-01  2.79284600E+00  2.79284600E+00
  2.79284600E+00
MicOpt                                     I   N=           6
           0           0           0           0           0           0
Constraint Structure                       R   N=          18
  0.00000000E+00  7.90159927E-01 -1.21743413E-33  2.25970712E+00  4.47272043E-01
  5.50169496E-32 -1.76932659E+00 -1.06657760E+00 -4.19739451E-32 -8.55274818E-01
  2.69588597E+00 -2.52378221E-32 -1.21395689E+00 -2.88621441E+00 -2.54794304E-32
 -3.62313907E+00 -6.62764252E-01 -8.82961240E-32
ONIOM Charges                              I   N=          16
           0           0           0           0           0           0
           0           0           0           0           0           0
           0           0           0           0
ONIOM Multiplicities                       I   N=          16
           1           0           0           0           0           0
           0           0           0           0           0           0
           0           0           0           0
Atom Layers                                I   N=           6
           1           1           1           1           1           1
Atom Modifiers                             I   N=           6
           0           0           0           0           0           0
Int Atom Modified Types                    I   N=           6
           0           0           0           0           0           0
Link Atoms                                 I   N=           6
           0           0           0           0           0           0
Atom Modified MM Charges                   R   N=           6
  0.00000000E+00  0.00000000E+00  0.00000000E+00  0.00000000E+00  0.00000000E+00
  0.00000000E+00
Link Distances                             R   N=          24
  0.00000000E+00  0.00000000E+00  0.00000000E+00  0.00000000E+00  0.00000000E+00
  0.00000000E+00  0.00000000E+00  0.00000000E+00  0.00000000E+00  0.00000000E+00
  0.00000000E+00  0.00000000E+00  0.00000000E+00  0.00000000E+00  0.00000000E+00
  0.00000000E+00  0.00000000E+00  0.00000000E+00  0.00000000E+00  0.00000000E+00
  0.00000000E+00  0.00000000E+00  0.00000000E+00  0.00000000E+00
MxBond                                     I                3
NBond                                      I   N=           6
           3           1           3           1           1           1
IBond                                      I   N=          18
           2           3           4           1           0           0
           1           5           6           1           0           0
           3           0           0           3           0           0
RBond                                      R   N=          18
  2.00000000E+00  1.41000000E+00  1.00000000E+00  2.00000000E+00  0.00000000E+00
  0.00000000E+00  1.41000000E+00  1.00000000E+00  1.00000000E+00  1.00000000E+00
  0.00000000E+00  0.00000000E+00  1.00000000E+00  0.00000000E+00  0.00000000E+00
  1.00000000E+00  0.00000000E+00  0.00000000E+00
Shell types                                I   N=          48
           0           0           0           0           1           1
           1          -2          -2          -3           0           0
           0           0           1           1           1          -2
          -2          -3           0           0           0           0
           1           1           1          -2          -2          -3
           0           0           0           1           1          -2
           0           0           0           1           1          -2
           0           0           0           1           1          -2
Number of primitives per shell             I   N=          48
           7           7           1           1           3           1
           1           1           1           1           7           7
           1           1           3           1           1           1
           1           1           7           7           1           1
           3           1           1           1           1           1
           3           1           1           1           1           1
           3           1           1           1           1           1
           3           1           1           1           1           1
Shell to atom map                          I   N=          48
           1           1           1           1           1           1
           1           1           1           1           2           2
           2           2           2           2           2           2
           2           2           3           3           3           3
           3           3           3           3           3           3
           4           4           4           4           4           4
           5           5           5           5           5           5
           6           6           6           6           6           6
Primitive exponents                        R   N=          96
  8.23600000E+03  1.23500000E+03  2.80800000E+02  7.92700000E+01  2.55900000E+01
  8.99700000E+00  3.31900000E+00  8.23600000E+03  1.23500000E+03  2.80800000E+02
  2.55900000E+01  8.99700000E+00  3.31900000E+00  3.64300000E-01  9.05900000E-01
  1.28500000E-01  1.87100000E+01  4.13300000E+00  1.20000000E+00  3.82700000E-01
  1.20900000E-01  1.09700000E+00  3.18000000E-01  7.61000000E-01  1.53300000E+04
  2.29900000E+03  5.22400000E+02  1.47300000E+02  4.75500000E+01  1.67600000E+01
  6.20700000E+00  1.53300000E+04  2.29900000E+03  5.22400000E+02  4.75500000E+01
  1.67600000E+01  6.20700000E+00  6.88200000E-01  1.75200000E+00  2.38400000E-01
  3.44600000E+01  7.74900000E+00  2.28000000E+00  7.15600000E-01  2.14000000E-01
  2.31400000E+00  6.45000000E-01  1.42800000E+00  1.14200000E+04  1.71200000E+03
  3.89300000E+02  1.10000000E+02  3.55700000E+01  1.25400000E+01  4.64400000E+00
  1.14200000E+04  1.71200000E+03  3.89300000E+02  3.55700000E+01  1.25400000E+01
  4.64400000E+00  5.11800000E-01  1.29300000E+00  1.78700000E-01  2.66300000E+01
  5.94800000E+00  1.74200000E+00  5.55000000E-01  1.72500000E-01  1.65400000E+00
  4.69000000E-01  1.09300000E+00  3.38700000E+01  5.09500000E+00  1.15900000E+00
  3.25800000E-01  1.02700000E-01  1.40700000E+00  3.88000000E-01  1.05700000E+00
  3.38700000E+01  5.09500000E+00  1.15900000E+00  3.25800000E-01  1.02700000E-01
  1.40700000E+00  3.88000000E-01  1.05700000E+00  3.38700000E+01  5.09500000E+00
  1.15900000E+00  3.25800000E-01  1.02700000E-01  1.40700000E+00  3.88000000E-01
  1.05700000E+00
Contraction coefficients                   R   N=          96
  5.41978320E-04  4.19287382E-03  2.15221621E-02  8.35343220E-02  2.39582846E-01
  4.42852842E-01  3.51799562E-01  8.31820297E-06  5.75428976E-05  2.35967292E-04
 -6.71596546E-03 -5.50492638E-02 -1.68179886E-01  1.07129359E+00  1.00000000E+00
  1.00000000E+00  3.94263872E-02  2.44088985E-01  8.15492009E-01  1.00000000E+00
  1.00000000E+00  1.00000000E+00  1.00000000E+00  1.00000000E+00  5.19808943E-04
  4.02025621E-03  2.07128267E-02  8.10105536E-02  2.35962985E-01  4.42653446E-01
  3.57064423E-01  9.13376623E-06  6.07362596E-05  2.68782282E-04 -6.96940030E-03
 -6.06456900E-02 -1.65519536E-01  1.07151369E+00  1.00000000E+00  1.00000000E+00
  4.11634896E-02  2.57762836E-01  8.02419274E-01  1.00000000E+00  1.00000000E+00
  1.00000000E+00  1.00000000E+00  1.00000000E+00  5.34563860E-04  4.13435660E-03
  2.12335358E-02  8.25006224E-02  2.38138871E-01  4.42551547E-01  3.53757422E-01
  9.02102607E-06  5.98036652E-05  2.58235151E-04 -6.88794959E-03 -5.83634956E-02
 -1.66162977E-01  1.07119219E+00  1.00000000E+00  1.00000000E+00  3.98072123E-02
  2.49002660E-01  8.10479727E-01  1.00000000E+00  1.00000000E+00  1.00000000E+00
  1.00000000E+00  1.00000000E+00  2.54948632E-02  1.90362766E-01  8.52162022E-01
  1.00000000E+00  1.00000000E+00  1.00000000E+00  1.00000000E+00  1.00000000E+00
  2.54948632E-02  1.90362766E-01  8.52162022E-01  1.00000000E+00  1.00000000E+00
  1.00000000E+00  1.00000000E+00  1.00000000E+00  2.54948632E-02  1.90362766E-01
  8.52162022E-01  1.00000000E+00  1.00000000E+00  1.00000000E+00  1.00000000E+00
  1.00000000E+00
Coordinates of each shell                  R   N=         144
  0.00000000E+00  7.90159927E-01 -1.21743413E-33  0.00000000E+00  7.90159927E-01
 -1.21743413E-33  0.00000000E+00  7.90159927E-01 -1.21743413E-33  0.00000000E+00
  7.90159927E-01 -1.21743413E-33  0.00000000E+00  7.90159927E-01 -1.21743413E-33
  0.00000000E+00  7.90159927E-01 -1.21743413E-33  0.00000000E+00  7.90159927E-01
 -1.21743413E-33  0.00000000E+00  7.90159927E-01 -1.21743413E-33  0.00000000E+00
  7.90159927E-01 -1.21743413E-33  0.00000000E+00  7.90159927E-01 -1.21743413E-33
  2.25970712E+00  4.47272043E-01  5.50169496E-32  2.25970712E+00  4.47272043E-01
  5.50169496E-32  2.25970712E+00  4.47272043E-01  5.50169496E-32  2.25970712E+00
  4.47272043E-01  5.50169496E-32  2.25970712E+00  4.47272043E-01  5.50169496E-32
  2.25970712E+00  4.47272043E-01  5.50169496E-32  2.25970712E+00  4.47272043E-01
  5.50169496E-32  2.25970712E+00  4.47272043E-01  5.50169496E-32  2.25970712E+00
  4.47272043E-01  5.50169496E-32  2.25970712E+00  4.47272043E-01  5.50169496E-32
 -1.76932659E+00 -1.06657760E+00 -4.19739451E-32 -1.76932659E+00 -1.06657760E+00
 -4.19739451E-32 -1.76932659E+00 -1.06657760E+00 -4.19739451E-32 -1.76932659E+00
 -1.06657760E+00 -4.19739451E-32 -1.76932659E+00 -1.06657760E+00 -4.19739451E-32
 -1.76932659E+00 -1.06657760E+00 -4.19739451E-32 -1.76932659E+00 -1.06657760E+00
 -4.19739451E-32 -1.76932659E+00 -1.06657760E+00 -4.19739451E-32 -1.76932659E+00
 -1.06657760E+00 -4.19739451E-32 -1.76932659E+00 -1.06657760E+00 -4.19739451E-32
 -8.55274818E-01  2.69588597E+00 -2.52378221E-32 -8.55274818E-01  2.69588597E+00
 -2.52378221E-32 -8.55274818E-01  2.69588597E+00 -2.52378221E-32 -8.55274818E-01
  2.69588597E+00 -2.52378221E-32 -8.55274818E-01  2.69588597E+00 -2.52378221E-32
 -8.55274818E-01  2.69588597E+00 -2.52378221E-32 -1.21395689E+00 -2.88621441E+00
 -2.54794304E-32 -1.21395689E+00 -2.88621441E+00 -2.54794304E-32 -1.21395689E+00
 -2.88621441E+00 -2.54794304E-32 -1.21395689E+00 -2.88621441E+00 -2.54794304E-32
 -1.21395689E+00 -2.88621441E+00 -2.54794304E-32 -1.21395689E+00 -2.88621441E+00
 -2.54794304E-32 -3.62313907E+00 -6.62764252E-01 -8.82961240E-32 -3.62313907E+00
 -6.62764252E-01 -8.82961240E-32 -3.62313907E+00 -6.62764252E-01 -8.82961240E-32
 -3.62313907E+00 -6.62764252E-01 -8.82961240E-32 -3.62313907E+00 -6.62764252E-01
 -8.82961240E-32 -3.62313907E+00 -6.62764252E-01 -8.82961240E-32
Alpha Orbital Energies                     R   N=         132
 -1.91008192E+01 -1.43505353E+01 -1.02787580E+01 -1.04383149E+00 -9.18644136E-01
 -6.34378128E-01 -5.65218536E-01 -4.88823195E-01 -4.22371816E-01 -4.14293145E-01
 -2.85886857E-01 -2.67088055E-01  1.44364189E-02  2.44075673E-02  5.48964864E-02
  1.01903937E-01  1.79455470E-01  2.46072195E-01  2.86436945E-01  2.89804025E-01
  3.52087644E-01  3.58967842E-01  4.22513568E-01  4.62139473E-01  4.69841244E-01
  4.97146596E-01  5.36232937E-01  5.39422727E-01  5.62524006E-01  6.37224505E-01
  6.47597129E-01  7.07203836E-01  7.59153408E-01  8.09209429E-01  8.15268188E-01
  8.66915030E-01  9.21459344E-01  9.63747668E-01  9.89378293E-01  1.05090619E+00
  1.10315527E+00  1.16559231E+00  1.18743871E+00  1.27741165E+00  1.33989372E+00
  1.37880717E+00  1.39923451E+00  1.47160934E+00  1.55893727E+00  1.60891543E+00
  1.65967311E+00  1.73877678E+00  1.75371100E+00  1.93269337E+00  1.96441822E+00
  2.05558861E+00  2.08359682E+00  2.15875547E+00  2.28242884E+00  2.47605188E+00
  2.52644293E+00  2.54686028E+00  2.66251214E+00  2.73125253E+00  2.77761714E+00
  2.81549617E+00  2.88756741E+00  2.92950156E+00  2.94627365E+00  3.04716077E+00
  3.07165134E+00  3.10464368E+00  3.11765448E+00  3.17977604E+00  3.18124984E+00
  3.27437504E+00  3.32408257E+00  3.37406414E+00  3.42944922E+00  3.43333285E+00
  3.48992409E+00  3.52208624E+00  3.65634487E+00  3.71274798E+00  3.74349302E+00
  3.76334991E+00  3.84183745E+00  3.86811052E+00  3.91222522E+00  4.00311724E+00
  4.03165903E+00  4.08797393E+00  4.11860237E+00  4.14248712E+00  4.16746635E+00
  4.18104102E+00  4.28025744E+00  4.52118750E+00  4.59002055E+00  4.61137342E+00
  4.67650970E+00  4.69614060E+00  4.72538883E+00  4.76373881E+00  4.89011336E+00
  4.94372222E+00  5.04502776E+00  5.17315910E+00  5.23099456E+00  5.26149114E+00
  5.37179614E+00  5.51789548E+00  5.56604669E+00  5.64620093E+00  5.68313072E+00
  5.81254451E+00  5.81489523E+00  6.00075291E+00  6.11771521E+00  6.22335769E+00
  6.30667745E+00  6.37491442E+00  6.42336049E+00  6.44045633E+00  6.79612227E+00
  6.83471667E+00  7.00392080E+00  7.04069805E+00  7.29445553E+00  9.80363762E+00
  1.25964130E+01  1.37837483E+01
Alpha MO coefficients                      R   N=       17424
 -4.67294392E-05  2.73504022E-04  4.65661408E-04 -9.34823811E-04  3.92067612E-04
 -7.39287323E-05  0.00000000E+00  4.76446906E-04  2.25747671E-04  0.00000000E+00
 -1.00882767E-03  5.63924259E-04  0.00000000E+00 -7.10256315E-05  0.00000000E+00
  0.00000000E+00  1.78409144E-04 -6.50840639E-05  1.72164910E-04  0.00000000E+00
  0.00000000E+00 -4.40563611E-04 -2.38171776E-04  0.00000000E+00  2.18671638E-04
 -3.98516775E-05  0.00000000E+00  0.00000000E+00 -4.85851185E-04  2.73140295E-04
  9.73075040E-01 -1.13132457E-02  5.14014970E-02  3.82719972E-03 -1.61457176E-03
  1.69825875E-04  0.00000000E+00  7.94745435E-04 -3.31367832E-05  0.00000000E+00
 -2.51142059E-04  3.05123595E-05  0.00000000E+00 -1.36181738E-04  0.00000000E+00
  0.00000000E+00  2.49470086E-04 -6.68426189E-05  2.47132326E-04  0.00000000E+00
  0.00000000E+00 -3.90188043E-04  7.96804445E-05  0.00000000E+00 -5.94160106E-05
  9.94564542E-06  0.00000000E+00  0.00000000E+00  2.42217819E-05 -1.73987549E-05
  5.58114595E-05  4.25857805E-04  9.18465280E-08 -8.79174856E-05  5.02887237E-06
  1.39266768E-05  0.00000000E+00  2.98585095E-04  7.46131675E-05  0.00000000E+00
  2.51316331E-04 -1.36188983E-04  0.00000000E+00 -7.79575940E-05  0.00000000E+00
  0.00000000E+00  5.24246368E-05  3.65750472E-05  1.10348574E-04  0.00000000E+00
  0.00000000E+00 -4.24632311E-04  1.57458612E-04  0.00000000E+00  1.89962244E-05
  5.19177492E-05  0.00000000E+00  0.00000000E+00 -5.47498750E-05  1.00847874E-04
  2.05680551E-04 -5.51735215E-04 -3.22340034E-04  5.84908625E-05 -1.17812886E-04
  0.00000000E+00 -1.73008367E-04  2.43855566E-04  0.00000000E+00  8.17564099E-05
  0.00000000E+00  0.00000000E+00 -3.65893129E-05  3.67642329E-06 -4.17342124E-05
 -3.11376968E-04  1.24925067E-04  6.64259368E-05 -4.68025054E-05  0.00000000E+00
  1.47977882E-04 -1.01947719E-04  0.00000000E+00  1.01897377E-05  0.00000000E+00
  0.00000000E+00  1.15132353E-05  8.75561851E-05  4.08090484E-05  5.04192877E-04
 -7.95355577E-05  1.03875343E-05 -4.17003803E-06  0.00000000E+00  1.66775556E-04
 -7.41263476E-05  0.00000000E+00 -1.07374786E-06  0.00000000E+00  0.00000000E+00
 -2.01768657E-05 -2.63479549E-06 -1.16634741E-04 -6.53587666E-04  4.01444628E-04
 -1.43929151E-03 -1.78774782E-04 -2.87290002E-04  0.00000000E+00 -1.98534267E-04
  9.70736386E-04  0.00000000E+00  6.08874741E-04  7.45071335E-04  0.00000000E+00
  1.96833503E-04  0.00000000E+00  0.00000000E+00 -4.14901085E-05 -4.34734542E-07
  7.98190762E-05  0.00000000E+00  0.00000000E+00 -2.54039925E-04 -1.12481966E-03
  0.00000000E+00 -1.38417760E-04 -2.27259687E-04  0.00000000E+00  0.00000000E+00
 -6.01136257E-04  6.50430265E-04  3.28019377E-05  2.79870850E-04  2.43686467E-05
  2.99905116E-04 -3.27621886E-05 -5.13574751E-05  0.00000000E+00 -3.04161314E-04
  2.27962827E-04  0.00000000E+00 -1.52191135E-04  5.73544309E-05  0.00000000E+00
 -4.42055864E-05  0.00000000E+00  0.00000000E+00  4.77105911E-05  3.98247602E-05
  3.85397646E-05  0.00000000E+00  0.00000000E+00  1.71304554E-04 -1.63035833E-04
  0.00000000E+00 -2.69724710E-05  2.53468783E-05  0.00000000E+00  0.00000000E+00
 -1.41176311E-04  1.61835045E-05  9.74210759E-01 -4.97409503E-03  5.09879572E-02
  1.07128900E-02 -3.78423387E-05  2.01625491E-05  0.00000000E+00 -1.66399143E-03
 -1.74558285E-03  0.00000000E+00 -9.57714386E-04 -5.53073054E-04  0.00000000E+00
 -8.68928209E-04  0.00000000E+00  0.00000000E+00  5.10210563E-05 -3.29690572E-04
 -9.52232577E-04  0.00000000E+00  0.00000000E+00  1.90195932E-06 -4.21466032E-04
  0.00000000E+00  1.90729987E-04  1.95038609E-04  0.00000000E+00  0.00000000E+00
 -7.27562924E-04  5.69724299E-04  1.25003637E-04 -9.77916560E-04  5.70426283E-05
  1.75559045E-04 -3.32495642E-05  0.00000000E+00  6.02557171E-05  4.63593149E-04
  0.00000000E+00  4.36485454E-05  0.00000000E+00  0.00000000E+00  1.23830870E-04
 -2.08230226E-04  1.07396759E-04 -5.25808150E-03 -7.29198255E-04  3.08374605E-04
 -9.75169363E-04  0.00000000E+00  1.06256222E-03 -2.62306645E-03  0.00000000E+00
  7.08372141E-04  0.00000000E+00  0.00000000E+00  1.08381273E-03  8.33400193E-04
  1.40665104E-04 -5.64306576E-03 -9.29538932E-04 -1.01568000E-03  2.26151259E-04
  0.00000000E+00 -2.81376925E-03  8.22408512E-04  0.00000000E+00  7.16590833E-04
  0.00000000E+00  0.00000000E+00 -1.22964212E-03  6.52227906E-04  9.75646466E-01
  2.72972884E-03  5.02038099E-02  1.22360728E-02 -9.95769961E-05 -5.98930099E-04
  0.00000000E+00  1.40025274E-03  2.73578166E-03  0.00000000E+00 -1.51359018E-03
  2.18134767E-03  0.00000000E+00 -2.22166820E-03  0.00000000E+00  0.00000000E+00
  7.86904156E-04 -3.74283269E-04 -2.70154365E-03  0.00000000E+00  0.00000000E+00
 -8.87366590E-04 -9.80734579E-04  0.00000000E+00 -3.27161401E-04 -1.90565182E-04
  0.00000000E+00  0.00000000E+00  2.48707331E-03 -1.14073169E-03 -5.58939361E-04
 -1.89713063E-03  8.85516932E-04 -6.29796748E-03 -7.15401435E-04  8.60668082E-05
  0.00000000E+00  4.16420875E-03 -5.36629932E-04  0.00000000E+00  2.45860692E-03
 -7.00047104E-04  0.00000000E+00  3.65929597E-05  0.00000000E+00  0.00000000E+00
 -8.61317664E-05  2.48697107E-05  1.36877618E-03  0.00000000E+00  0.00000000E+00
 -2.21944404E-03  7.66483509E-04  0.00000000E+00 -3.61416878E-04  6.37817653E-05
  0.00000000E+00  0.00000000E+00  5.72242574E-04 -3.14876756E-04 -3.75910702E-04
 -1.36133927E-03  7.74738330E-04 -2.91052293E-03  4.15654317E-04  4.51548828E-04
  0.00000000E+00 -1.50702181E-03 -1.93261139E-03  0.00000000E+00  5.39044598E-05
 -1.62370659E-03  0.00000000E+00  1.97782828E-04  0.00000000E+00  0.00000000E+00
  7.04582359E-05  3.47043427E-05  7.27063594E-04  0.00000000E+00  0.00000000E+00
 -9.64366002E-04 -3.35335606E-03  0.00000000E+00  3.18596857E-04  3.17778095E-04
  0.00000000E+00  0.00000000E+00  6.26246661E-04 -6.66654129E-04 -4.73763397E-05
 -9.95822292E-03 -3.09987030E-03 -5.97091234E-04  1.17854488E-03  0.00000000E+00
 -2.50247245E-03  4.56836716E-03  0.00000000E+00  7.43015612E-04  0.00000000E+00
  0.00000000E+00  9.53320453E-04  1.38219771E-03 -2.59694122E-04 -1.66864466E-03
 -1.96024869E-04 -1.12336766E-04 -8.40038800E-05  0.00000000E+00 -5.14785733E-04
 -7.87166407E-04  0.00000000E+00 -1.19092464E-04  0.00000000E+00  0.00000000E+00
  1.23096949E-04 -2.33216268E-04 -5.29004609E-05  6.99875895E-04 -9.62135114E-05
  5.26231299E-05 -2.15702682E-04  0.00000000E+00 -5.25748467E-06 -1.05442340E-03
  0.00000000E+00 -6.89964847E-05  0.00000000E+00  0.00000000E+00 -4.11309960E-05
 -3.99162298E-04 -1.29039799E-01  2.62182443E-01  6.85971312E-02  7.98603863E-02
  8.62400259E-02 -3.13544435E-02  0.00000000E+00  5.93256814E-02 -2.28444952E-02
  0.00000000E+00  3.87712245E-03 -4.96670414E-03  0.00000000E+00 -1.21797768E-02
  0.00000000E+00  0.00000000E+00  1.19450932E-02 -1.91191356E-03 -1.71980156E-02
  0.00000000E+00  0.00000000E+00  6.49341968E-03 -3.34111720E-03  0.00000000E+00
 -1.56169119E-03  9.40008024E-04  0.00000000E+00  0.00000000E+00  9.70789172E-03
 -5.05111009E-03 -1.80199369E-01  3.94020842E-01  1.16461422E-01  1.96658167E-01
 -9.00211287E-02  1.04203596E-02  0.00000000E+00 -1.02033145E-01  1.15029859E-02
  0.00000000E+00 -1.66047676E-02  1.41940983E-03  0.00000000E+00 -3.42992407E-03
  0.00000000E+00  0.00000000E+00  6.44391036E-03 -1.64600187E-03 -6.36017222E-03
  0.00000000E+00  0.00000000E+00  1.29709783E-02 -3.09907505E-03  0.00000000E+00
  2.56177160E-03 -2.78975490E-04  0.00000000E+00  0.00000000E+00 -2.96232929E-03
  1.09654925E-03 -6.00332069E-02  1.27208421E-01  3.60889089E-02  3.61065737E-02
  2.06806990E-02  1.25380508E-02  0.00000000E+00  1.68479328E-02  9.11626659E-03
  0.00000000E+00 -7.55272438E-03 -1.58719604E-03  0.00000000E+00 -2.39189938E-03
  0.00000000E+00  0.00000000E+00  5.97430601E-04  1.26339591E-03 -1.87614976E-03
  0.00000000E+00  0.00000000E+00  2.33380434E-03 -1.83540660E-03  0.00000000E+00
 -4.60181245E-04 -3.14950052E-04  0.00000000E+00  0.00000000E+00  1.24243296E-04
  1.06968092E-03  1.75131022E-02 -8.86333807E-03 -1.74331045E-03  2.95874600E-04
  4.22937356E-05  0.00000000E+00 -3.18556409E-03  9.88551105E-03  0.00000000E+00
  2.53763024E-04  0.00000000E+00  0.00000000E+00  1.26316349E-03  7.47153437E-04
  2.00476592E-02  1.78602278E-02  6.87102339E-04 -2.02977273E-04  2.66877738E-03
  0.00000000E+00  7.89558610E-04  2.16726418E-03  0.00000000E+00 -2.43526445E-04
  0.00000000E+00  0.00000000E+00 -3.39812004E-04  1.43350377E-04  1.64804428E-02
  6.14027287E-03 -2.46509066E-03  1.88581923E-03 -3.77655341E-04  0.00000000E+00
 -1.11205691E-03  2.27618897E-04  0.00000000E+00 -1.55931089E-04  0.00000000E+00
  0.00000000E+00 -9.68989880E-05 -2.88504871E-04 -3.48456009E-02  7.49291051E-02
  1.95133716E-02  1.30514060E-02 -1.11199916E-01 -4.53298963E-02  0.00000000E+00
 -9.41952764E-02 -4.23255260E-02  0.00000000E+00 -1.46669274E-02  3.30025389E-04
  0.00000000E+00 -2.62507981E-03  0.00000000E+00  0.00000000E+00 -6.11394682E-03
  9.73253350E-03 -1.53398461E-03  0.00000000E+00  0.00000000E+00 -2.17489805E-03
  9.16084776E-03  0.00000000E+00  1.91523530E-03  8.90377363E-04  0.00000000E+00
  0.00000000E+00  3.50258880E-04 -2.05417214E-03  8.23102331E-02 -1.85385154E-01
 -5.51540749E-02 -1.14938924E-01  2.67428391E-02 -1.27927011E-02  0.00000000E+00
  3.48883438E-02 -1.55355706E-02  0.00000000E+00  7.45655312E-03 -5.50042139E-03
  0.00000000E+00  1.10977945E-03  0.00000000E+00  0.00000000E+00 -2.11558051E-03
  1.52472077E-03  2.67216708E-03  0.00000000E+00  0.00000000E+00 -5.70144256E-03
  4.10094109E-03  0.00000000E+00 -7.51263878E-04  2.85486736E-04  0.00000000E+00
  0.00000000E+00  1.12802188E-03 -1.34925851E-03 -1.90381820E-01  4.17872856E-01
  1.16103743E-01  2.10533460E-01  4.11305682E-03  1.44300480E-02  0.00000000E+00
  9.98119490E-03  1.92271435E-02  0.00000000E+00  2.31361658E-03  1.41904783E-03
  0.00000000E+00 -6.90413883E-03  0.00000000E+00  0.00000000E+00 -4.20891617E-04
  1.85067282E-03 -1.19444370E-02  0.00000000E+00  0.00000000E+00 -1.96584584E-03
  6.61745463E-03  0.00000000E+00 -1.05546596E-03 -1.14218737E-03  0.00000000E+00
  0.00000000E+00 -3.73572293E-03  2.53026580E-03  1.27542788E-02  1.46792950E-02
 -1.69758685E-03 -9.91049003E-04 -2.30979367E-03  0.00000000E+00 -2.16483246E-03
 -3.07741935E-03  0.00000000E+00 -3.35700719E-04  0.00000000E+00  0.00000000E+00
 -1.51973679E-03  1.06083231E-03  7.43015219E-02  6.14632152E-02  5.00062146E-03
 -2.40212523E-03  8.65852846E-03  0.00000000E+00 -1.07917810E-03  6.00753140E-03
  0.00000000E+00 -8.17542780E-04  0.00000000E+00  0.00000000E+00 -1.45901728E-03
 -6.62258138E-04  8.00947859E-02  7.41646369E-02  7.75689588E-03  9.75220583E-03
 -1.56976608E-03  0.00000000E+00  9.51201668E-03  6.55331429E-04  0.00000000E+00
 -1.15090314E-03  0.00000000E+00  0.00000000E+00  1.96067110E-03 -2.04876304E-04
 -1.31669531E-01  2.98689940E-01  8.16524572E-02  1.21552529E-01 -1.12639520E-01
  3.18723723E-02  0.00000000E+00 -1.17931055E-01  2.81026318E-02  0.00000000E+00
 -4.78109834E-02  1.99578526E-02  0.00000000E+00 -5.44510542E-03  0.00000000E+00
  0.00000000E+00 -3.19149335E-03  3.95849339E-03 -5.36360220E-03  0.00000000E+00
  0.00000000E+00  5.23311204E-04  4.88170456E-03  0.00000000E+00  2.72045394E-03
  1.34131732E-03  0.00000000E+00  0.00000000E+00  3.16229195E-03 -4.37742820E-03
  6.05868663E-02 -1.43528939E-01 -4.41229098E-02 -1.18896542E-01 -2.98732409E-02
  1.46985872E-02  0.00000000E+00 -2.98580343E-02  1.76261656E-02  0.00000000E+00
 -2.16029009E-02  8.83424582E-03  0.00000000E+00 -4.48009022E-04  0.00000000E+00
  0.00000000E+00  2.03931390E-04 -6.84373349E-04 -9.61684419E-04  0.00000000E+00
  0.00000000E+00  4.67446927E-04 -2.52986791E-03  0.00000000E+00  2.04795897E-04
 -2.03038278E-04  0.00000000E+00  0.00000000E+00  3.08136091E-04  4.68761024E-04
  4.65977894E-02 -1.01435150E-01 -3.19489221E-02 -8.46106738E-02  8.25853321E-02
  1.73817915E-01  0.00000000E+00  9.42169537E-02  1.91336043E-01  0.00000000E+00